
                                 *****************
                                 * O   R   C   A *
                                 *****************

           --- An Ab Initio, DFT and Semiempirical electronic structure package ---

                  #######################################################
                  #                        -***-                        #
                  #  Department of molecular theory and spectroscopy    #
                  #              Directorship: Frank Neese              #
                  # Max Planck Institute for Chemical Energy Conversion #
                  #                  D-45470 Muelheim/Ruhr              #
                  #                       Germany                       #
                  #                                                     #
                  #                  All rights reserved                #
                  #                        -***-                        #
                  #######################################################


                         Program Version 4.0.0 -  RELEASE  -


 With contributions from (in alphabetic order):
   Daniel Aravena         : Magnetic Properties
   Michael Atanasov       : Ab Initio Ligand Field Theory
   Ute Becker             : Parallelization
   Martin Brehm           : Molecular dynamics
   Dmytro Bykov           : SCF Hessian
   Vijay G. Chilkuri      : MRCI spin determinant printing
   Dipayan Datta          : RHF DLPNO-CCSD density
   Achintya Kumar Dutta   : EOM-CC, STEOM-CC
   Dmitry Ganyushin       : Spin-Orbit,Spin-Spin,Magnetic field MRCI
   Yang Guo               : DLPNO-NEVPT2, CIM, IAO-localization
   Andreas Hansen         : Spin unrestricted coupled pair/coupled cluster methods
   Lee Huntington         : MR-EOM, pCC
   Robert Izsak           : Overlap fitted RIJCOSX, COSX-SCS-MP3, EOM
   Christian Kollmar      : KDIIS, OOCD, Brueckner-CCSD(T), CCSD density
   Simone Kossmann        : Meta GGA functionals, TD-DFT gradient, OOMP2, MP2 Hessian
   Martin Krupicka        : AUTO-CI
   Dagmar Lenk            : GEPOL surface
   Dimitrios Liakos       : Extrapolation schemes; parallel MDCI
   Dimitrios Manganas     : ROCIS; embedding schemes
   Dimitrios Pantazis     : SARC Basis sets
   Taras Petrenko         : DFT Hessian,TD-DFT gradient, ASA, ECA, R-Raman, ABS, FL, XAS/XES, NRVS
   Peter Pinski           : DLPNO-MP2
   Christoph Reimann      : Effective Core Potentials
   Marius Retegan         : Local ZFS, SOC
   Christoph Riplinger    : Optimizer, TS searches, QM/MM, DLPNO-CCSD(T), (RO)-DLPNO pert. Triples
   Tobias Risthaus        : Range-separated hybrids, TD-DFT gradient, RPA, STAB
   Michael Roemelt        : Restricted open shell CIS
   Masaaki Saitow         : Open-shell DLPNO
   Barbara Sandhoefer     : DKH picture change effects
   Kantharuban Sivalingam : CASSCF convergence, NEVPT2, FIC-MRCI
   Georgi Stoychev        : AutoAux
   Boris Wezisla          : Elementary symmetry handling
   Frank Wennmohs         : Technical directorship


 We gratefully acknowledge several colleagues who have allowed us to
 interface, adapt or use parts of their codes:
   Stefan Grimme, W. Hujo, H. Kruse,             : VdW corrections, initial TS optimization,
                  C. Bannwarth                     DFT functionals, gCP, sTDA/sTD-DF
   Ed Valeev                                     : LibInt (2-el integral package), F12 methods
   Garnet Chan, S. Sharma, J. Yang, R. Olivares  : DMRG
   Ulf Ekstrom                                   : XCFun DFT Library
   Mihaly Kallay                                 : mrcc  (arbitrary order and MRCC methods)
   Jiri Pittner, Ondrej Demel                    : Mk-CCSD
   Frank Weinhold                                : gennbo (NPA and NBO analysis)
   Christopher J. Cramer and Donald G. Truhlar   : smd solvation model


 Your calculation uses the libint2 library for the computation of 2-el integrals
 For citations please refer to: http://libint.valeyev.net

 This ORCA versions uses:
   CBLAS   interface :  Fast vector & matrix operations
   LAPACKE interface :  Fast linear algebra routines
   SCALAPACK package :  Parallel linear algebra routines




*****************************************
The coordinations will be read from file: caffeine.xyz
*****************************************


Your calculation utilizes the basis: STO-3G
   H-Ne       : W. J. Hehre, R. F. Stewart and J. A. Pople, J. Chem. Phys. 2657 (1969).
   Na-Ar      : W. J. Hehre, R. Ditchfield, R. F. Stewart and J. A. Pople, J. Chem. Phys. 2769 (1970).
   K,Ca,Ga-Kr : W. J. Pietro, B. A. Levy, W. J. Hehre and R. F. Stewart, J. Am. Chem. Soc. 19, 2225 (1980).
   Sc-Zn,Y-Cd : W. J. Pietro and W. J. Hehre, J. Comp. Chem. 4, 241 (1983).

================================================================================
                                        WARNINGS
                       Please study these warnings very carefully!
================================================================================

Warning: TCutStore was < 0. Adjusted to Thresh (uncritical)

INFO   : the flag for use of LIBINT has been found!

================================================================================
                                       INPUT FILE
================================================================================
NAME = caffeine.input
|  1> ! HF STO-3G Printbasis 
|  2> %scf print[p_mos] 1 end 
|  3> 
|  4> *xyzfile 0 1 caffeine.xyz 
|  5> 
|  6>                          ****END OF INPUT****
================================================================================

                       ****************************
                       * Single Point Calculation *
                       ****************************

---------------------------------
CARTESIAN COORDINATES (ANGSTROEM)
---------------------------------
  O     -0.557076   -2.536866   -0.000112
  O      3.079299    0.302344    0.000241
  N      1.003366    1.282596    0.000089
  N     -2.276813    0.013558   -0.000212
  N      1.263026   -1.092282    0.000060
  N     -1.313343    2.048656   -0.000010
  C     -0.904336   -0.185671    0.000002
  C     -0.356636    1.082049    0.000012
  C     -0.124401   -1.387431    0.000237
  C      1.862484    0.182673    0.000078
  C     -2.451044    1.359322   -0.000170
  C      1.553249    2.636987    0.000162
  C     -3.305569   -1.018435   -0.000227
  C      2.203073   -2.218122   -0.000066
  H     -3.438091    1.802972   -0.000272
  H      1.215721    3.177935   -0.888464
  H      2.637839    2.548381    0.000279
  H      1.215524    3.177917    0.888723
  H     -4.282791   -0.530959   -0.001002
  H     -3.206724   -1.650014   -0.885834
  H     -3.207703   -1.649123    0.886134
  H      1.612210   -3.131924   -0.000725
  H      2.840456   -2.172924    0.886195
  H      2.841205   -2.172023   -0.885725

----------------------------
CARTESIAN COORDINATES (A.U.)
----------------------------
  NO LB      ZA    FRAG     MASS         X           Y           Z
   0 O     8.0000    0    15.999   -1.052721   -4.793982   -0.000212
   1 O     8.0000    0    15.999    5.819032    0.571348    0.000456
   2 N     7.0000    0    14.007    1.896086    2.423755    0.000168
   3 N     7.0000    0    14.007   -4.302552    0.025620   -0.000401
   4 N     7.0000    0    14.007    2.386773   -2.064113    0.000113
   5 N     7.0000    0    14.007   -2.481858    3.871399   -0.000019
   6 C     6.0000    0    12.011   -1.708947   -0.350868    0.000003
   7 C     6.0000    0    12.011   -0.673944    2.044776    0.000023
   8 C     6.0000    0    12.011   -0.235084   -2.621864    0.000448
   9 C     6.0000    0    12.011    3.519584    0.345202    0.000148
  10 C     6.0000    0    12.011   -4.631803    2.568746   -0.000321
  11 C     6.0000    0    12.011    2.935215    4.983184    0.000306
  12 C     6.0000    0    12.011   -6.246620   -1.924563   -0.000429
  13 C     6.0000    0    12.011    4.163205   -4.191643   -0.000125
  14 H     1.0000    0     1.008   -6.497050    3.407124   -0.000513
  15 H     1.0000    0     1.008    2.297380    6.005427   -1.678954
  16 H     1.0000    0     1.008    4.984793    4.815741    0.000527
  17 H     1.0000    0     1.008    2.297007    6.005392    1.679443
  18 H     1.0000    0     1.008   -8.093303   -1.003368   -0.001893
  19 H     1.0000    0     1.008   -6.059829   -3.118075   -1.673983
  20 H     1.0000    0     1.008   -6.061680   -3.116391    1.674551
  21 H     1.0000    0     1.008    3.046636   -5.918479   -0.001369
  22 H     1.0000    0     1.008    5.367683   -4.106232    1.674666
  23 H     1.0000    0     1.008    5.369099   -4.104528   -1.673777

--------------------------------
INTERNAL COORDINATES (ANGSTROEM)
--------------------------------
 O      0   0   0     0.000000000000     0.00000000     0.00000000
 O      1   0   0     4.613495251264     0.00000000     0.00000000
 N      2   1   0     2.295733822485    63.25860768     0.00000000
 N      1   2   3     3.076061727006    86.00955517     0.00000000
 N      2   1   3     2.289940988102     0.46314916     0.00000000
 N      4   1   2     2.251643962967   120.67429524     0.00000000
 C      4   1   2     1.386861313220    47.74905088     0.00000000
 C      6   4   1     1.360006182552    70.03919280     0.00000000
 C      1   2   3     1.228172907674    31.39045625   359.97389907
 C      2   1   3     1.222686267663    32.36515062     0.00000000
 C      6   4   1     1.330243228593    33.45417133   180.00051810
 C      3   2   1     1.461761531142    93.17941465   179.99991216
 C      4   1   2     1.457171418983    78.90159462   180.00355525
 C      5   2  10     1.466698507224    87.65788266   179.98773165
 H     11   6   4     1.082167169215   124.58568924   180.00072942
 H     12   3   2     1.093712165678   110.00708239   120.15698555
 H     12   3   2     1.088203123832   107.42670773     0.00000000
 H     12   3   2     1.093711048302   110.00696293   239.83961084
 H     13   4   1     1.092060827231   108.39824533   180.04061846
 H     13   4   1     1.092227740585   110.22096984   300.22035250
 H     13   4   1     1.092237085314   110.22314059    59.86098880
 H     14   5   2     1.088188533599   107.25237573   180.03004173
 H     14   5   2     1.092592485580   110.00319603    59.68001832
 H     14   5   2     1.092578932399   110.00012737   300.38481862

---------------------------
INTERNAL COORDINATES (A.U.)
---------------------------
 O      0   0   0     0.000000000000     0.00000000     0.00000000
 O      1   0   0     8.718242545035     0.00000000     0.00000000
 N      2   1   0     4.338308200876    63.25860768     0.00000000
 N      1   2   3     5.812914235078    86.00955517     0.00000000
 N      2   1   3     4.327361330354     0.46314916     0.00000000
 N      4   1   2     4.254990441105   120.67429524     0.00000000
 C      4   1   2     2.620788067717    47.74905088     0.00000000
 C      6   4   1     2.570039225463    70.03919280     0.00000000
 C      1   2   3     2.320910440606    31.39045625   359.97389907
 C      2   1   3     2.310542193590    32.36515062     0.00000000
 C      6   4   1     2.513795393545    33.45417133   180.00051810
 C      3   2   1     2.762328966960    93.17941465   179.99991216
 C      4   1   2     2.753654912055    78.90159462   180.00355525
 C      5   2  10     2.771658499684    87.65788266   179.98773165
 H     11   6   4     2.044999580938   124.58568924   180.00072942
 H     12   3   2     2.066816462470   110.00708239   120.15698555
 H     12   3   2     2.056405882120   107.42670773     0.00000000
 H     12   3   2     2.066814350934   110.00696293   239.83961084
 H     13   4   1     2.063695885050   108.39824533   180.04061846
 H     13   4   1     2.064011305577   110.22096984   300.22035250
 H     13   4   1     2.064028964556   110.22314059    59.86098880
 H     14   5   2     2.056378310575   107.25237573   180.03004173
 H     14   5   2     2.064700573727   110.00319603    59.68001832
 H     14   5   2     2.064674961926   110.00012737   300.38481862

---------------------
BASIS SET INFORMATION
---------------------
There are 4 groups of distinct atoms

 Group   1 Type O   : 6s3p contracted to 2s1p pattern {33/3}
 Group   2 Type N   : 6s3p contracted to 2s1p pattern {33/3}
 Group   3 Type C   : 6s3p contracted to 2s1p pattern {33/3}
 Group   4 Type H   : 3s contracted to 1s pattern {3}

Atom   0O    basis set group =>   1
Atom   1O    basis set group =>   1
Atom   2N    basis set group =>   2
Atom   3N    basis set group =>   2
Atom   4N    basis set group =>   2
Atom   5N    basis set group =>   2
Atom   6C    basis set group =>   3
Atom   7C    basis set group =>   3
Atom   8C    basis set group =>   3
Atom   9C    basis set group =>   3
Atom  10C    basis set group =>   3
Atom  11C    basis set group =>   3
Atom  12C    basis set group =>   3
Atom  13C    basis set group =>   3
Atom  14H    basis set group =>   4
Atom  15H    basis set group =>   4
Atom  16H    basis set group =>   4
Atom  17H    basis set group =>   4
Atom  18H    basis set group =>   4
Atom  19H    basis set group =>   4
Atom  20H    basis set group =>   4
Atom  21H    basis set group =>   4
Atom  22H    basis set group =>   4
Atom  23H    basis set group =>   4

-------------------------
BASIS SET IN INPUT FORMAT
-------------------------

 # Basis set for element : H 
 NewGTO H 
 S 3 
   1       3.4252509100      0.1543289707
   2       0.6239137300      0.5353281424
   3       0.1688554000      0.4446345420
  end;

 # Basis set for element : C 
 NewGTO C 
 S 3 
   1      71.6168370000      0.1543289700
   2      13.0450960000      0.5353281400
   3       3.5305122000      0.4446345400
 S 3 
   1       2.9412494000     -0.0999672301
   2       0.6834831000      0.3995128303
   3       0.2222899000      0.7001154705
 P 3 
   1       2.9412494000      0.1559162721
   2       0.6834831000      0.6076837282
   3       0.2222899000      0.3919573953
  end;

 # Basis set for element : N 
 NewGTO N 
 S 3 
   1      99.1061690000      0.1543289703
   2      18.0523120000      0.5353281411
   3       4.8856602000      0.4446345409
 S 3 
   1       3.7804559000     -0.0999672284
   2       0.8784966000      0.3995128238
   3       0.2857144000      0.7001154591
 P 3 
   1       3.7804559000      0.1559162685
   2       0.8784966000      0.6076837143
   3       0.2857144000      0.3919573863
  end;

 # Basis set for element : O 
 NewGTO O 
 S 3 
   1     130.7093200000      0.1543289687
   2      23.8088610000      0.5353281356
   3       6.4436083000      0.4446345363
 S 3 
   1       5.0331513000     -0.0999672287
   2       1.1695961000      0.3995128246
   3       0.3803890000      0.7001154606
 P 3 
   1       5.0331513000      0.1559162685
   2       1.1695961000      0.6076837141
   3       0.3803890000      0.3919573862
  end;

------------------------------------------------------------------------------
                           ORCA GTO INTEGRAL CALCULATION
------------------------------------------------------------------------------

                         BASIS SET STATISTICS AND STARTUP INFO

 # of primitive gaussian shells          ...  156
 # of primitive gaussian functions       ...  240
 # of contracted shells                  ...   52
 # of contracted basis functions         ...   80
 Highest angular momentum                ...    1
 Maximum contraction depth               ...    3
 Integral package used                   ... LIBINT
 Integral threshhold            Thresh   ...  1.000e-10
 Primitive cut-off              TCut     ...  1.000e-11


------------------------------ INTEGRAL EVALUATION ----------------------------


 * One electron integrals 
 Pre-screening matrix                    ... done
 Shell pair data                         ... done (   0.001 sec)

-------------------------------------------------------------------------------
                                 ORCA SCF
-------------------------------------------------------------------------------

------------
SCF SETTINGS
------------
Hamiltonian:
 Ab initio Hamiltonian  Method          .... Hartree-Fock(GTOs)


General Settings:
 Integral files         IntName         .... caffeine.input
 Hartree-Fock type      HFTyp           .... RHF
 Total Charge           Charge          ....    0
 Multiplicity           Mult            ....    1
 Number of Electrons    NEL             ....  102
 Basis Dimension        Dim             ....   80
 Nuclear Repulsion      ENuc            ....    927.2110751966 Eh

Convergence Acceleration:
 DIIS                   CNVDIIS         .... on
   Start iteration      DIISMaxIt       ....    12
   Startup error        DIISStart       ....  0.200000
   # of expansion vecs  DIISMaxEq       ....     5
   Bias factor          DIISBfac        ....   1.050
   Max. coefficient     DIISMaxC        ....  10.000
 Newton-Raphson         CNVNR           .... off
 SOSCF                  CNVSOSCF        .... on
   Start iteration      SOSCFMaxIt      ....   150
   Startup grad/error   SOSCFStart      ....  0.003300
 Level Shifting         CNVShift        .... on
   Level shift para.    LevelShift      ....    0.2500
   Turn off err/grad.   ShiftErr        ....    0.0010
 Zerner damping         CNVZerner       .... off
 Static damping         CNVDamp         .... on
   Fraction old density DampFac         ....    0.7000
   Max. Damping (<1)    DampMax         ....    0.9800
   Min. Damping (>=0)   DampMin         ....    0.0000
   Turn off err/grad.   DampErr         ....    0.1000
 Fernandez-Rico         CNVRico         .... off

SCF Procedure:
 Maximum # iterations   MaxIter         ....   125
 SCF integral mode      SCFMode         .... Direct
   Integral package                     .... LIBINT
 Reset frequeny         DirectResetFreq ....    20
 Integral Threshold     Thresh          ....  1.000e-10 Eh
 Primitive CutOff       TCut            ....  1.000e-11 Eh

Convergence Tolerance:
 Convergence Check Mode ConvCheckMode   .... Total+1el-Energy
 Convergence forced     ConvForced      .... 0
 Energy Change          TolE            ....  1.000e-06 Eh
 1-El. energy change                    ....  1.000e-03 Eh
 Orbital Gradient       TolG            ....  5.000e-05
 Orbital Rotation angle TolX            ....  5.000e-05
 DIIS Error             TolErr          ....  1.000e-06


Diagonalization of the overlap matrix:
Smallest eigenvalue                        ... 1.869e-01
Time for diagonalization                   ...    0.003 sec
Threshold for overlap eigenvalues          ... 1.000e-08
Number of eigenvalues below threshold      ... 0
Time for construction of square roots      ...    0.000 sec
Total time needed                          ...    0.003 sec

-------------------
DFT GRID GENERATION
-------------------

General Integration Accuracy     IntAcc      ...  4.340
Radial Grid Type                 RadialGrid  ... Gauss-Chebyshev
Angular Grid (max. acc.)         AngularGrid ... Lebedev-110
Angular grid pruning method      GridPruning ... 3 (G Style)
Weight generation scheme         WeightScheme... Becke
Basis function cutoff            BFCut       ...    1.0000e-10
Integration weight cutoff        WCut        ...    1.0000e-14
Grids for H and He will be reduced by one unit

# of grid points (after initial pruning)     ...  31428 (   0.0 sec)
# of grid points (after weights+screening)   ...  28656 (   0.2 sec)
nearest neighbour list constructed           ...    0.0 sec
Grid point re-assignment to atoms done       ...    0.0 sec
Grid point division into batches done        ...    0.0 sec
Reduced shell lists constructed in    0.4 sec

Total number of grid points                  ...    28656
Total number of batches                      ...      460
Average number of points per batch           ...       62
Average number of grid points per atom       ...     1194
Average number of shells per batch           ...    32.42 (62.35%)
Average number of basis functions per batch  ...    55.46 (69.32%)
Average number of large shells per batch     ...    22.16 (68.35%)
Average number of large basis fcns per batch ...    38.98 (70.28%)
Maximum spatial batch extension              ...  20.16, 21.14, 20.06 au
Average spatial batch extension              ...   3.33,  3.47,  3.77 au

Time for grid setup =    0.578 sec

------------------------------
INITIAL GUESS: MODEL POTENTIAL
------------------------------
Loading Hartree-Fock densities                     ... done
Calculating cut-offs                               ... done
Setting up the integral package                    ... done
Initializing the effective Hamiltonian             ... done
Starting the Coulomb interaction                   ... done (   0.2 sec)
Reading the grid                                   ... done
Mapping shells                                     ... done
Starting the XC term evaluation                    ... done (   0.4 sec)
Transforming the Hamiltonian                       ... done (   0.0 sec)
Diagonalizing the Hamiltonian                      ... done (   0.0 sec)
Back transforming the eigenvectors                 ... done (   0.0 sec)
Now organizing SCF variables                       ... done
                      ------------------
                      INITIAL GUESS DONE (   1.3 sec)
                      ------------------
--------------
SCF ITERATIONS
--------------
ITER       Energy         Delta-E        Max-DP      RMS-DP      [F,P]     Damp
               ***  Starting incremental Fock matrix formation  ***
  0   -667.5178943421   0.000000000000 0.07526428  0.00364820  0.1564527 0.7000
  1   -667.5849132782  -0.067018936122 0.06384177  0.00294521  0.0993319 0.7000
                               ***Turning on DIIS***
  2   -667.6269555357  -0.042042257552 0.13722702  0.00655732  0.0538511 0.0000
  3   -667.6296649209  -0.002709385141 0.04358759  0.00228115  0.0363244 0.0000
  4   -667.7514922696  -0.121827348684 0.02366981  0.00097067  0.0105680 0.0000
  5   -667.7672820174  -0.015789747826 0.01477658  0.00072834  0.0046284 0.0000
                      *** Initiating the SOSCF procedure ***
                           *** Shutting down DIIS ***
                      *** Re-Reading the Fockian *** 
                      *** Removing any level shift *** 
ITER      Energy       Delta-E        Grad      Rot      Max-DP    RMS-DP
  6   -667.74010684   0.0271751794  0.003290  0.003290  0.009849  0.000415
               *** Restarting incremental Fock matrix formation ***
  7   -667.72783028   0.0122765571  0.000988  0.001935  0.004404  0.000153
  8   -667.72786089  -0.0000306102  0.000435  0.001977  0.003954  0.000183
  9   -667.72787335  -0.0000124594  0.000187  0.000227  0.000615  0.000024
                 **** Energy Check signals convergence ****
              ***Rediagonalizing the Fockian in SOSCF/NRSCF***

               *****************************************************
               *                     SUCCESS                       *
               *           SCF CONVERGED AFTER  10 CYCLES          *
               *****************************************************


----------------
TOTAL SCF ENERGY
----------------

Total Energy       :         -667.72787410 Eh          -18169.79919 eV

Components:
Nuclear Repulsion  :          927.21107520 Eh           25230.69606 eV
Electronic Energy  :        -1594.93894930 Eh          -43400.49525 eV
One Electron Energy:        -2757.11274493 Eh          -75024.85198 eV
Two Electron Energy:         1162.17379563 Eh           31624.35673 eV

Virial components:
Potential Energy   :        -1328.81467933 Eh          -36158.88571 eV
Kinetic Energy     :          661.08680522 Eh           17989.08652 eV
Virial Ratio       :            2.01004568


---------------
SCF CONVERGENCE
---------------

  Last Energy change         ...   -7.5214e-07  Tolerance :   1.0000e-06
  Last MAX-Density change    ...    2.0082e-04  Tolerance :   1.0000e-05
  Last RMS-Density change    ...    8.8443e-06  Tolerance :   1.0000e-06
  Last Orbital Gradient      ...    6.3385e-05  Tolerance :   5.0000e-05
  Last Orbital Rotation      ...    1.1902e-04  Tolerance :   5.0000e-05

             **** THE GBW FILE WAS UPDATED (caffeine.input.gbw) ****
             **** DENSITY FILE WAS UPDATED (caffeine.input.scfp.tmp) ****
             **** ENERGY FILE WAS UPDATED (caffeine.input.en.tmp) ****
----------------
ORBITAL ENERGIES
----------------

  NO   OCC          E(Eh)            E(eV) 
   0   2.0000     -20.230484      -550.4994 
   1   2.0000     -20.212878      -550.0204 
   2   2.0000     -15.454872      -420.5485 
   3   2.0000     -15.392896      -418.8620 
   4   2.0000     -15.376273      -418.4097 
   5   2.0000     -15.323767      -416.9809 
   6   2.0000     -11.196784      -304.6800 
   7   2.0000     -11.171623      -303.9953 
   8   2.0000     -11.133550      -302.9593 
   9   2.0000     -11.122522      -302.6592 
  10   2.0000     -11.114856      -302.4506 
  11   2.0000     -11.095098      -301.9130 
  12   2.0000     -11.087478      -301.7056 
  13   2.0000     -11.056792      -300.8706 
  14   2.0000      -1.345541       -36.6140 
  15   2.0000      -1.318304       -35.8729 
  16   2.0000      -1.307076       -35.5673 
  17   2.0000      -1.210599       -32.9421 
  18   2.0000      -1.166907       -31.7532 
  19   2.0000      -1.136346       -30.9216 
  20   2.0000      -1.000584       -27.2273 
  21   2.0000      -0.941075       -25.6080 
  22   2.0000      -0.919140       -25.0111 
  23   2.0000      -0.898309       -24.4442 
  24   2.0000      -0.808651       -22.0045 
  25   2.0000      -0.788380       -21.4529 
  26   2.0000      -0.745708       -20.2917 
  27   2.0000      -0.715258       -19.4632 
  28   2.0000      -0.650123       -17.6908 
  29   2.0000      -0.640741       -17.4355 
  30   2.0000      -0.620710       -16.8904 
  31   2.0000      -0.612085       -16.6557 
  32   2.0000      -0.586047       -15.9471 
  33   2.0000      -0.579337       -15.7646 
  34   2.0000      -0.558715       -15.2034 
  35   2.0000      -0.550371       -14.9764 
  36   2.0000      -0.542220       -14.7546 
  37   2.0000      -0.533851       -14.5268 
  38   2.0000      -0.523449       -14.2438 
  39   2.0000      -0.519861       -14.1461 
  40   2.0000      -0.499921       -13.6035 
  41   2.0000      -0.493074       -13.4172 
  42   2.0000      -0.477484       -12.9930 
  43   2.0000      -0.467957       -12.7338 
  44   2.0000      -0.384153       -10.4533 
  45   2.0000      -0.375084       -10.2066 
  46   2.0000      -0.347244        -9.4490 
  47   2.0000      -0.322566        -8.7775 
  48   2.0000      -0.314315        -8.5529 
  49   2.0000      -0.286034        -7.7834 
  50   2.0000      -0.225343        -6.1319 
  51   0.0000       0.224625         6.1124 
  52   0.0000       0.317523         8.6402 
  53   0.0000       0.334159         9.0929 
  54   0.0000       0.454827        12.3765 
  55   0.0000       0.514669        14.0049 
  56   0.0000       0.542278        14.7561 
  57   0.0000       0.553654        15.0657 
  58   0.0000       0.577328        15.7099 
  59   0.0000       0.605095        16.4655 
  60   0.0000       0.630298        17.1513 
  61   0.0000       0.646497        17.5921 
  62   0.0000       0.660224        17.9656 
  63   0.0000       0.669293        18.2124 
  64   0.0000       0.684978        18.6392 
  65   0.0000       0.689543        18.7634 
  66   0.0000       0.698927        19.0188 
  67   0.0000       0.699152        19.0249 
  68   0.0000       0.704010        19.1571 
  69   0.0000       0.721200        19.6249 
  70   0.0000       0.725891        19.7525 
  71   0.0000       0.738500        20.0956 
  72   0.0000       0.801393        21.8070 
  73   0.0000       0.839604        22.8468 
  74   0.0000       0.878178        23.8964 
  75   0.0000       0.927890        25.2492 
  76   0.0000       0.951726        25.8978 
  77   0.0000       1.001462        27.2512 
  78   0.0000       1.065484        28.9933 
  79   0.0000       1.117481        30.4082 
------------------
MOLECULAR ORBITALS
------------------
                      0         1         2         3         4         5   
                 -20.23048 -20.21288 -15.45487 -15.39290 -15.37627 -15.32377
                   2.00000   2.00000   2.00000   2.00000   2.00000   2.00000
                  --------  --------  --------  --------  --------  --------
  0O   1s        -0.994242 -0.000108 -0.000007  0.000001  0.000032 -0.000002
  0O   2s        -0.026069  0.000013  0.000106 -0.000008 -0.000245  0.000019
  0O   1pz       -0.000002  0.000000  0.000000 -0.000000  0.000000  0.000000
  0O   1px       -0.002021  0.000007  0.000052 -0.000003 -0.000376  0.000002
  0O   1py       -0.005257  0.000009  0.000063 -0.000007 -0.000006  0.000013
  1O   1s         0.000105 -0.994221 -0.000002 -0.000036  0.000038 -0.000002
  1O   2s         0.000021 -0.026227  0.000016  0.000292 -0.000306  0.000019
  1O   1pz       -0.000000  0.000001 -0.000000  0.000000  0.000000 -0.000000
  1O   1px       -0.000013  0.005723 -0.000010 -0.000193  0.000122 -0.000013
  1O   1py       -0.000005  0.000544 -0.000001  0.000332  0.000373  0.000002
  2N   1s         0.000000  0.000026  0.000069  0.993191  0.001102  0.000315
  2N   2s        -0.000021 -0.000316  0.000028  0.032729 -0.000348 -0.000208
  2N   1pz        0.000000 -0.000000  0.000000 -0.000000 -0.000000 -0.000000
  2N   1px       -0.000004 -0.000491 -0.000019 -0.000504  0.000098  0.000140
  2N   1py       -0.000017 -0.000165 -0.000052 -0.000793  0.000293 -0.000357
  3N   1s        -0.000006 -0.000001 -0.993236  0.000076 -0.000061  0.000099
  3N   2s         0.000123  0.000019 -0.032688  0.000000  0.000018 -0.000482
  3N   1pz       -0.000000  0.000000 -0.000001 -0.000000  0.000000 -0.000000
  3N   1px        0.000099  0.000013 -0.000997 -0.000036  0.000015 -0.000214
  3N   1py        0.000001 -0.000003 -0.001338 -0.000040 -0.000033 -0.000379
  4N   1s         0.000023  0.000027  0.000054  0.001054 -0.993259 -0.000067
  4N   2s        -0.000266 -0.000353 -0.000013  0.000389 -0.032023 -0.000005
  4N   1pz        0.000000 -0.000000 -0.000000  0.000000 -0.000000 -0.000000
  4N   1px        0.000058 -0.000542 -0.000007 -0.000138 -0.000054 -0.000024
  4N   1py        0.000506  0.000026  0.000053  0.000269 -0.000284  0.000030
  5N   1s        -0.000001 -0.000002 -0.000054  0.000269  0.000061 -0.993524
  5N   2s         0.000022  0.000024 -0.000424  0.000235  0.000043 -0.031039
  5N   1pz       -0.000000  0.000000  0.000000  0.000000  0.000000  0.000001
  5N   1px        0.000005  0.000014  0.000072  0.000308  0.000020  0.001103
  5N   1py       -0.000014 -0.000010  0.000371  0.000116 -0.000024  0.006971
  6C   1s         0.000022 -0.000005 -0.000479 -0.000019 -0.000006  0.000013
  6C   2s        -0.000193  0.000006  0.005979  0.000355 -0.000315 -0.000530
  6C   1pz        0.000000 -0.000000 -0.000001  0.000000 -0.000000  0.000000
  6C   1px        0.000416  0.000062 -0.004719  0.000347 -0.000178  0.000098
  6C   1py        0.000382 -0.000008  0.000714  0.000030  0.000059 -0.000438
  7C   1s        -0.000003 -0.000006 -0.000001  0.000491 -0.000014 -0.000527
  7C   2s        -0.000061 -0.000008 -0.000442 -0.006207  0.000114  0.006937
  7C   1pz        0.000000 -0.000000  0.000000 -0.000000 -0.000000 -0.000000
  7C   1px        0.000076  0.000010  0.000210 -0.004899  0.000129 -0.004002
  7C   1py        0.000017 -0.000090  0.000237 -0.000631 -0.000111  0.003660
  8C   1s        -0.000552 -0.000001  0.000018  0.000005 -0.000495 -0.000003
  8C   2s         0.007146 -0.000042 -0.000173 -0.000115  0.005616 -0.000003
  8C   1pz       -0.000002  0.000000  0.000000  0.000000 -0.000001  0.000000
  8C   1px       -0.002250 -0.000026  0.000338 -0.000015  0.004471  0.000051
  8C   1py       -0.006009  0.000035  0.000173 -0.000077  0.001023  0.000042
  9C   1s        -0.000002 -0.000561 -0.000004  0.000499 -0.000500 -0.000004
  9C   2s        -0.000033  0.007350  0.000006 -0.005968  0.005795  0.000001
  9C   1pz        0.000000  0.000001  0.000000 -0.000000  0.000000 -0.000000
  9C   1px       -0.000045  0.006422 -0.000044  0.002956 -0.002061 -0.000053
  9C   1py        0.000048  0.000616 -0.000004 -0.003746 -0.004211 -0.000038
 10C   1s         0.000000  0.000000 -0.000486  0.000007 -0.000001 -0.000518
 10C   2s        -0.000009 -0.000001  0.006402 -0.000052  0.000007  0.007293
 10C   1pz       -0.000000 -0.000000 -0.000000 -0.000000 -0.000000  0.000001
 10C   1px       -0.000008 -0.000003  0.000639 -0.000082 -0.000002  0.004971
 10C   1py        0.000005  0.000001 -0.004868  0.000070 -0.000007  0.002602
 11C   1s        -0.000001  0.000016 -0.000001  0.000482 -0.000004 -0.000002
 11C   2s         0.000006 -0.000136  0.000008 -0.005116  0.000009  0.000000
 11C   1pz       -0.000000 -0.000000 -0.000000  0.000000 -0.000000 -0.000000
 11C   1px       -0.000002 -0.000196  0.000000  0.001523  0.000030 -0.000090
 11C   1py       -0.000004 -0.000079 -0.000007  0.003920 -0.000035 -0.000091
 12C   1s         0.000007 -0.000000 -0.000478  0.000001 -0.000002 -0.000001
 12C   2s        -0.000077 -0.000000  0.005027 -0.000010  0.000000 -0.000015
 12C   1pz        0.000000 -0.000000 -0.000000  0.000000  0.000000  0.000000
 12C   1px        0.000039 -0.000000  0.002878 -0.000004  0.000024 -0.000022
 12C   1py        0.000019  0.000000  0.002995 -0.000007 -0.000008  0.000034
 13C   1s         0.000019 -0.000006 -0.000001  0.000007 -0.000486 -0.000001
 13C   2s        -0.000165  0.000011  0.000011 -0.000043  0.005149  0.000010
 13C   1pz        0.000000  0.000000  0.000000 -0.000000  0.000000  0.000000
 13C   1px        0.000039 -0.000031 -0.000006 -0.000037 -0.002789 -0.000005
 13C   1py        0.000224  0.000149  0.000007 -0.000073  0.003185  0.000005
 14H   1s        -0.000001 -0.000001 -0.000223 -0.000027 -0.000001 -0.000083
 15H   1s        -0.000001  0.000001 -0.000001  0.000156  0.000004  0.000095
 16H   1s        -0.000001  0.000458 -0.000001  0.000323  0.000040  0.000029
 17H   1s        -0.000001  0.000001 -0.000001  0.000156  0.000004  0.000095
 18H   1s         0.000021  0.000000 -0.000266  0.000002  0.000009  0.000047
 19H   1s         0.000096  0.000000 -0.000130  0.000001  0.000009  0.000007
 20H   1s         0.000096  0.000000 -0.000130  0.000001  0.000009  0.000007
 21H   1s         0.000510  0.000039 -0.000001 -0.000020 -0.000346 -0.000001
 22H   1s         0.000002  0.000099 -0.000001 -0.000000 -0.000166 -0.000001
 23H   1s         0.000002  0.000099 -0.000001 -0.000000 -0.000166 -0.000001
                      6         7         8         9        10        11   
                 -11.19678 -11.17162 -11.13355 -11.12252 -11.11486 -11.09510
                   2.00000   2.00000   2.00000   2.00000   2.00000   2.00000
                  --------  --------  --------  --------  --------  --------
  0O   1s        -0.000007  0.000147  0.000005  0.000000 -0.000009 -0.000000
  0O   2s         0.000064 -0.005437 -0.000051 -0.000002  0.000078  0.000003
  0O   1pz        0.000000 -0.000000  0.000000 -0.000000  0.000000  0.000000
  0O   1px        0.000008 -0.000542 -0.000007 -0.000005 -0.000009 -0.000000
  0O   1py        0.000041 -0.001468 -0.000008 -0.000000  0.000044  0.000001
  1O   1s        -0.000134  0.000007 -0.000000 -0.000000 -0.000014  0.000015
  1O   2s         0.005488 -0.000072  0.000000  0.000004  0.000155 -0.000150
  1O   1pz       -0.000000  0.000000 -0.000000 -0.000000 -0.000000  0.000000
  1O   1px       -0.001542  0.000037 -0.000000 -0.000003 -0.000089  0.000012
  1O   1py       -0.000141  0.000006 -0.000000 -0.000000 -0.000007 -0.000040
  2N   1s        -0.000400  0.000005 -0.000000  0.000012 -0.000376 -0.000498
  2N   2s         0.005423  0.000011  0.000001 -0.000116  0.005651  0.005313
  2N   1pz        0.000000 -0.000000  0.000000 -0.000000 -0.000000  0.000000
  2N   1px        0.002201  0.000022 -0.000002  0.000093 -0.003371  0.001417
  2N   1py       -0.002635  0.000030  0.000001  0.000023 -0.000471  0.003502
  3N   1s        -0.000008 -0.000024 -0.000504  0.000338 -0.000029 -0.000001
  3N   2s         0.000071  0.000288  0.005384 -0.006036 -0.000271 -0.000001
  3N   1pz        0.000000  0.000000 -0.000000 -0.000000 -0.000000  0.000000
  3N   1px        0.000051  0.000098 -0.002703  0.000659  0.000019  0.000001
  3N   1py       -0.000009 -0.000144 -0.002728 -0.003542  0.000129 -0.000004
  4N   1s        -0.000419  0.000439 -0.000004  0.000000 -0.000024 -0.000008
  4N   2s         0.005362 -0.005432  0.000031 -0.000001  0.000006  0.000070
  4N   1pz        0.000000 -0.000000  0.000000 -0.000000 -0.000000 -0.000000
  4N   1px        0.001442  0.003418 -0.000025 -0.000002 -0.000147  0.000006
  4N   1py        0.003109  0.000804 -0.000001  0.000001  0.000094  0.000055
  5N   1s        -0.000011  0.000006 -0.000005  0.000235 -0.000323 -0.000009
  5N   2s         0.000110 -0.000052  0.000025 -0.005802  0.005840 -0.000020
  5N   1pz        0.000000  0.000000 -0.000000  0.000000  0.000000  0.000000
  5N   1px        0.000058 -0.000021 -0.000017  0.003068  0.002658  0.000105
  5N   1py       -0.000050  0.000038 -0.000009  0.001378 -0.002070  0.000070
  6C   1s         0.000228  0.000164  0.000491 -0.001893 -0.003686  0.000058
  6C   2s         0.000052 -0.006667  0.000088 -0.000202  0.007252  0.000124
  6C   1pz        0.000000 -0.000000  0.000000 -0.000000  0.000000 -0.000000
  6C   1px        0.000238 -0.002202 -0.000157  0.000482  0.001876  0.000053
  6C   1py       -0.000024  0.003698 -0.000107 -0.000475  0.004055  0.000070
  7C   1s         0.000815 -0.000266  0.000128 -0.018017 -0.992119 -0.003191
  7C   2s         0.000231  0.000143  0.000070 -0.001262 -0.035045  0.000027
  7C   1pz       -0.000000 -0.000000 -0.000000  0.000000 -0.000000  0.000000
  7C   1px        0.000328 -0.000043 -0.000026  0.001097  0.000832  0.000162
  7C   1py       -0.000289 -0.000024 -0.000042  0.000098  0.000934  0.000279
  8C   1s         0.001484  0.992563 -0.000280  0.000094 -0.000300 -0.000016
  8C   2s         0.000068  0.033053  0.000012 -0.000155 -0.000246 -0.000004
  8C   1pz        0.000000 -0.000002  0.000000  0.000000  0.000000  0.000000
  8C   1px        0.000133 -0.000007 -0.000085  0.000061  0.000069  0.000003
  8C   1py        0.000133  0.000842 -0.000037 -0.000102 -0.000031  0.000002
  9C   1s        -0.992688  0.001563 -0.000005 -0.000007 -0.000977 -0.000628
  9C   2s        -0.032015 -0.000041  0.000001 -0.000003  0.000161  0.000142
  9C   1pz       -0.000001 -0.000000 -0.000000  0.000000 -0.000000  0.000000
  9C   1px        0.000226  0.000169 -0.000001 -0.000009 -0.000477  0.000074
  9C   1py       -0.000016  0.000068 -0.000000 -0.000005 -0.000049  0.000253
 10C   1s         0.000009 -0.000085  0.003440  0.992238 -0.018350 -0.000063
 10C   2s         0.000005 -0.000052  0.000193  0.034275  0.000067  0.000049
 10C   1pz        0.000000  0.000000  0.000000  0.000000  0.000000  0.000000
 10C   1px       -0.000000 -0.000045 -0.000041  0.001282  0.000902  0.000038
 10C   1py        0.000001  0.000022 -0.000155 -0.000929 -0.000398  0.000014
 11C   1s         0.000504 -0.000013  0.000000 -0.000002  0.003065 -0.992066
 11C   2s         0.000006 -0.000016  0.000000 -0.000008  0.000159 -0.036966
 11C   1pz       -0.000000  0.000000 -0.000000  0.000000 -0.000000  0.000000
 11C   1px        0.000065  0.000003 -0.000000 -0.000005 -0.000437 -0.000013
 11C   1py       -0.000351  0.000013  0.000000  0.000002 -0.000133  0.000186
 12C   1s         0.000004 -0.000262 -0.992066  0.003508 -0.000205 -0.000001
 12C   2s         0.000001 -0.000006 -0.036977  0.000173  0.000066 -0.000000
 12C   1pz        0.000000 -0.000000  0.000000 -0.000000  0.000000  0.000000
 12C   1px        0.000001 -0.000149 -0.000079 -0.000028  0.000050  0.000000
 12C   1py        0.000001 -0.000014 -0.000184 -0.000175  0.000025 -0.000000
 13C   1s         0.000608 -0.000653  0.000002 -0.000001  0.000084  0.000106
 13C   2s         0.000131 -0.000012  0.000001  0.000000  0.000049  0.000010
 13C   1pz        0.000000 -0.000000  0.000000 -0.000000  0.000000  0.000000
 13C   1px        0.000124  0.000357 -0.000000  0.000001 -0.000019 -0.000003
 13C   1py        0.000577 -0.000119  0.000001  0.000001  0.000032  0.000005
 14H   1s        -0.000001 -0.000007 -0.000017 -0.006546  0.000350  0.000001
 15H   1s         0.000064  0.000001  0.000000  0.000003  0.000144  0.006857
 16H   1s         0.000479 -0.000002  0.000000  0.000002  0.000129  0.006920
 17H   1s         0.000064  0.000001  0.000000  0.000003  0.000144  0.006857
 18H   1s         0.000001 -0.000040  0.006896 -0.000218  0.000003  0.000001
 19H   1s         0.000001 -0.000093  0.006856 -0.000073 -0.000002  0.000000
 20H   1s         0.000001 -0.000092  0.006855 -0.000072 -0.000002  0.000000
 21H   1s         0.000174 -0.000519  0.000002 -0.000001 -0.000001 -0.000001
 22H   1s         0.000196 -0.000065 -0.000000 -0.000000 -0.000003 -0.000000
 23H   1s         0.000197 -0.000065 -0.000000 -0.000000 -0.000003 -0.000000
                     12        13        14        15        16        17   
                 -11.08748 -11.05679  -1.34554  -1.31830  -1.30708  -1.21060
                   2.00000   2.00000   2.00000   2.00000   2.00000   2.00000
                  --------  --------  --------  --------  --------  --------
  0O   1s         0.000018  0.000024 -0.087104 -0.133181  0.121631  0.022640
  0O   2s        -0.000172 -0.000315  0.300236  0.461675 -0.422582 -0.080433
  0O   1pz        0.000000 -0.000000  0.000017  0.000024 -0.000022 -0.000004
  0O   1px       -0.000051  0.000020  0.027603  0.035994 -0.036240  0.000109
  0O   1py        0.000008 -0.000203  0.068209  0.098280 -0.085808 -0.012257
  1O   1s        -0.000013 -0.000008 -0.128634  0.123839  0.004621  0.107576
  1O   2s        -0.000052  0.000091  0.440125 -0.426214 -0.015865 -0.380537
  1O   1pz        0.000000 -0.000000 -0.000014  0.000012  0.000000  0.000009
  1O   1px        0.000059 -0.000056 -0.111118  0.100241  0.003322  0.059993
  1O   1py       -0.000149 -0.000009 -0.010934  0.008408  0.002725  0.013502
  2N   1s        -0.000012  0.000013 -0.069895  0.030181 -0.028454 -0.153956
  2N   2s         0.000110 -0.000414  0.219063 -0.094302  0.091747  0.500234
  2N   1pz       -0.000000  0.000000 -0.000001 -0.000001 -0.000001 -0.000003
  2N   1px        0.000041  0.000147  0.010035 -0.029622 -0.021997 -0.040532
  2N   1py       -0.000076  0.000073 -0.034908  0.018913 -0.000980 -0.014179
  3N   1s        -0.000001 -0.000395 -0.046529 -0.075652 -0.122122  0.082372
  3N   2s         0.000007  0.005861  0.146887  0.241051  0.387792 -0.273504
  3N   1pz        0.000000  0.000001  0.000006  0.000009  0.000014 -0.000006
  3N   1px        0.000007  0.003558  0.018586  0.023124  0.026851  0.008412
  3N   1py        0.000001 -0.000830  0.015393  0.023543  0.054676 -0.008147
  4N   1s        -0.000495 -0.000028 -0.078059  0.000391  0.031335 -0.042088
  4N   2s         0.005231 -0.000190  0.243715 -0.001208 -0.099450  0.136796
  4N   1pz       -0.000000 -0.000000  0.000005  0.000000 -0.000002  0.000001
  4N   1px        0.002368 -0.000019 -0.003564 -0.043577  0.019387 -0.015873
  4N   1py       -0.002886  0.000181  0.027107 -0.033951  0.011877  0.015407
  5N   1s        -0.000000  0.000006 -0.032503 -0.038892 -0.084315 -0.029718
  5N   2s         0.000005 -0.000492  0.098549  0.117274  0.256834  0.097537
  5N   1pz       -0.000000  0.000000 -0.000002 -0.000004 -0.000007  0.000001
  5N   1px        0.000003 -0.000020 -0.000925 -0.012024 -0.017625  0.032965
  5N   1py       -0.000003  0.000157 -0.035821 -0.042488 -0.089897 -0.024627
  6C   1s         0.000125 -0.992071 -0.044641 -0.050731 -0.052496  0.000103
  6C   2s         0.000095 -0.036415  0.099968  0.113035  0.109754  0.004740
  6C   1pz        0.000000 -0.000000  0.000001 -0.000001 -0.000009  0.000007
  6C   1px        0.000061 -0.000130  0.003078 -0.015808 -0.052519  0.060773
  6C   1py       -0.000046 -0.001627  0.003497 -0.002110  0.059831  0.020318
  7C   1s        -0.000092  0.002951 -0.047378 -0.024677 -0.068329 -0.084947
  7C   2s         0.000001  0.007844  0.104331  0.054757  0.150175  0.202414
  7C   1pz        0.000000  0.000000  0.000001 -0.000002 -0.000001  0.000005
  7C   1px        0.000012 -0.001728  0.004733 -0.039354 -0.042801  0.073278
  7C   1py       -0.000009 -0.004287 -0.005680 -0.006581  0.005248  0.017298
  8C   1s        -0.000775 -0.000756 -0.078116 -0.088585  0.072637 -0.007750
  8C   2s         0.000121  0.006637  0.182844  0.209823 -0.166887  0.017921
  8C   1pz        0.000000 -0.000001 -0.000024 -0.000033  0.000027  0.000002
  8C   1px        0.000200 -0.002411 -0.002041 -0.041975  0.012045  0.032915
  8C   1py       -0.000223  0.003432 -0.039925 -0.084101  0.099909  0.032955
  9C   1s        -0.000774 -0.000298 -0.117908  0.086367  0.002015 -0.006509
  9C   2s         0.000216  0.000108  0.273055 -0.202816 -0.005241  0.013688
  9C   1pz        0.000000 -0.000000  0.000012 -0.000013 -0.000000 -0.000013
  9C   1px        0.000271 -0.000297  0.063052 -0.089478 -0.006797 -0.169994
  9C   1py       -0.000348  0.000000  0.004332 -0.017844  0.018221  0.032056
 10C   1s        -0.000002 -0.002078 -0.031273 -0.047990 -0.090853  0.025706
 10C   2s         0.000000  0.000430  0.066758  0.104866  0.199833 -0.062480
 10C   1pz       -0.000000  0.000000  0.000002  0.000002  0.000005  0.000003
 10C   1px        0.000001  0.000656  0.021325  0.029134  0.059005  0.009830
 10C   1py        0.000000 -0.000294 -0.015164 -0.027498 -0.043776  0.049625
 11C   1s        -0.000107 -0.000082 -0.018387  0.009814 -0.008316 -0.054646
 11C   2s         0.000001  0.000047  0.043036 -0.023067  0.019918  0.137246
 11C   1pz       -0.000000 -0.000000 -0.000001  0.000000 -0.000000 -0.000003
 11C   1px       -0.000005 -0.000040 -0.005130  0.000509 -0.004430 -0.023171
 11C   1py       -0.000006 -0.000015 -0.019148  0.010335 -0.007682 -0.049352
 12C   1s        -0.000002 -0.000575 -0.011987 -0.021541 -0.032550  0.036899
 12C   2s         0.000001 -0.000077  0.029193  0.052916  0.080199 -0.094517
 12C   1pz        0.000000  0.000000  0.000000  0.000000 -0.000000  0.000000
 12C   1px        0.000001  0.000253  0.009953  0.017084  0.023991 -0.023105
 12C   1py        0.000000 -0.000009  0.008849  0.015630  0.027758 -0.024970
 13C   1s        -0.992062 -0.000140 -0.022245  0.000484  0.011200 -0.009363
 13C   2s        -0.036988  0.000074  0.051640 -0.001294 -0.026355  0.023434
 13C   1pz       -0.000000  0.000000  0.000001 -0.000000 -0.000000  0.000000
 13C   1px        0.000098 -0.000054 -0.013804 -0.004618  0.009080 -0.009784
 13C   1py       -0.000053  0.000038  0.018025 -0.004246 -0.006402  0.006830
 14H   1s         0.000000  0.000182  0.008876  0.014516  0.027975 -0.011368
 15H   1s         0.000000 -0.000004  0.005115 -0.002304  0.003247  0.021726
 16H   1s         0.000009  0.000008  0.009390 -0.007366  0.002161  0.016582
 17H   1s         0.000000 -0.000004  0.005115 -0.002304  0.003248  0.021726
 18H   1s         0.000000  0.000107  0.003742  0.007212  0.011910 -0.016211
 19H   1s         0.000000  0.000145  0.004275  0.007916  0.009405 -0.014989
 20H   1s         0.000000  0.000145  0.004273  0.007912  0.009408 -0.014988
 21H   1s         0.006923  0.000019  0.008928  0.005506 -0.008147  0.003484
 22H   1s         0.006876 -0.000002  0.007833 -0.002261 -0.003197  0.001665
 23H   1s         0.006876 -0.000002  0.007837 -0.002266 -0.003197  0.001661
                     18        19        20        21        22        23   
                  -1.16691  -1.13635  -1.00058  -0.94107  -0.91914  -0.89831
                   2.00000   2.00000   2.00000   2.00000   2.00000   2.00000
                  --------  --------  --------  --------  --------  --------
  0O   1s         0.081088 -0.004872 -0.032487  0.004173 -0.016982 -0.039259
  0O   2s        -0.292897  0.017988  0.123869 -0.015200  0.068277  0.157783
  0O   1pz       -0.000012  0.000000  0.000003 -0.000001  0.000003 -0.000001
  0O   1px        0.000190 -0.009159  0.018817 -0.009252  0.000131 -0.004750
  0O   1py       -0.036765  0.004239 -0.016976  0.003848 -0.002721 -0.033315
  1O   1s         0.056744  0.020699  0.023142 -0.007014  0.036842  0.007516
  1O   2s        -0.203623 -0.074886 -0.089530  0.028204 -0.145431 -0.029713
  1O   1pz        0.000003  0.000002 -0.000001  0.000000  0.000001 -0.000004
  1O   1px        0.028254  0.005884  0.002230 -0.001685 -0.029028 -0.002911
  1O   1py       -0.019225  0.016669 -0.000004 -0.009095  0.006960 -0.015205
  2N   1s         0.052590 -0.090118 -0.029342  0.007031 -0.026718 -0.042448
  2N   2s        -0.174688  0.297777  0.103378 -0.024946  0.096611  0.158373
  2N   1pz        0.000000  0.000001  0.000003 -0.000006 -0.000004 -0.000014
  2N   1px        0.008838  0.028634  0.075797 -0.091449  0.062486 -0.104926
  2N   1py       -0.027828 -0.002156  0.072550 -0.073586 -0.185441 -0.132185
  3N   1s        -0.042085 -0.104395 -0.011991  0.048307 -0.010142 -0.020306
  3N   2s         0.143343  0.358767  0.040853 -0.180327  0.038549  0.073736
  3N   1pz        0.000003  0.000006 -0.000019 -0.000014 -0.000010  0.000001
  3N   1px       -0.003837 -0.029646 -0.182672 -0.132679 -0.076603  0.020423
  3N   1py       -0.012927 -0.064486  0.031729 -0.204999  0.130768  0.033392
  4N   1s        -0.173338  0.046064 -0.027980  0.000699 -0.018509  0.038860
  4N   2s         0.572318 -0.153783  0.099412 -0.002626  0.069252 -0.145425
  4N   1pz        0.000006 -0.000002 -0.000007  0.000004  0.000011 -0.000025
  4N   1px        0.002525 -0.008020  0.084256 -0.029365 -0.039646  0.166708
  4N   1py       -0.000221  0.017645 -0.047867  0.041946  0.169149 -0.062349
  5N   1s         0.050119  0.145025 -0.049061 -0.055300  0.004811  0.030447
  5N   2s        -0.162118 -0.470137  0.171638  0.199136 -0.015784 -0.109536
  5N   1pz        0.000002  0.000010 -0.000008  0.000005 -0.000010  0.000004
  5N   1px       -0.006486  0.026205 -0.063596  0.063277 -0.101096  0.049801
  5N   1py        0.041164  0.119590 -0.005996 -0.021399  0.012184 -0.004159
  6C   1s        -0.022332 -0.024219  0.153526  0.012263  0.061975  0.016260
  6C   2s         0.051708  0.062812 -0.407047 -0.027646 -0.175484 -0.044344
  6C   1pz       -0.000000 -0.000007 -0.000010  0.000012 -0.000002 -0.000017
  6C   1px       -0.007148 -0.052703 -0.048438  0.082458  0.007993 -0.050521
  6C   1py       -0.020422 -0.024487 -0.024077 -0.014417 -0.018895  0.106376
  7C   1s         0.038157  0.039595  0.073830 -0.059854  0.053800 -0.055517
  7C   2s        -0.092094 -0.097033 -0.205807  0.171505 -0.158055  0.156640
  7C   1pz       -0.000001  0.000006 -0.000001  0.000003 -0.000001  0.000002
  7C   1px       -0.002417  0.129630  0.026352 -0.000495  0.059043  0.072907
  7C   1py       -0.042003 -0.061214  0.141745  0.046073 -0.004284 -0.015583
  8C   1s        -0.026118  0.004695  0.057515 -0.010718  0.007144  0.079103
  8C   2s         0.067121 -0.010904 -0.164273  0.028824 -0.021854 -0.232766
  8C   1pz        0.000008 -0.000001  0.000007 -0.000000  0.000001  0.000005
  8C   1px        0.114584 -0.038951  0.052609  0.000310  0.033433 -0.058053
  8C   1py        0.108825  0.003638 -0.142246  0.023755 -0.030031 -0.113990
  9C   1s        -0.015980 -0.011023 -0.006326 -0.007440 -0.083586 -0.010978
  9C   2s         0.040429  0.027169  0.017139  0.022352  0.245991  0.030761
  9C   1pz       -0.000009 -0.000002 -0.000004  0.000001 -0.000003 -0.000007
  9C   1px       -0.087825 -0.049129 -0.023276 -0.007684 -0.142018 -0.022260
  9C   1py       -0.120651  0.071961 -0.000747 -0.019554  0.010278  0.041817
 10C   1s         0.009265  0.050155 -0.073351  0.060044 -0.085748  0.017652
 10C   2s        -0.021721 -0.122049  0.207378 -0.167829  0.250772 -0.053769
 10C   1pz       -0.000004 -0.000015  0.000001  0.000007 -0.000004 -0.000006
 10C   1px       -0.029603 -0.101662  0.003201  0.015219 -0.024027 -0.018197
 10C   1py       -0.035696 -0.099904  0.013211  0.100496 -0.020633 -0.059058
 11C   1s         0.030734 -0.043886 -0.066925  0.078787  0.101864  0.128872
 11C   2s        -0.078341  0.114248  0.186618 -0.226741 -0.296222 -0.378801
 11C   1pz        0.000001 -0.000002 -0.000001 -0.000000 -0.000001 -0.000003
 11C   1px        0.008835 -0.009605 -0.005875 -0.010027  0.007406 -0.023972
 11C   1py        0.023885 -0.037282 -0.023673  0.009460 -0.019756 -0.032199
 12C   1s        -0.023396 -0.076081 -0.071560 -0.170341  0.034377  0.024408
 12C   2s         0.061087  0.201746  0.202969  0.498671 -0.101941 -0.072914
 12C   1pz       -0.000000 -0.000000 -0.000003 -0.000004 -0.000001  0.000000
 12C   1px        0.013090  0.039740 -0.005091 -0.023965 -0.007447  0.010478
 12C   1py        0.015298  0.040258  0.024090 -0.027717  0.024764  0.012611
 13C   1s        -0.074027  0.027612 -0.063783  0.036464  0.117288 -0.123382
 13C   2s         0.189173 -0.071582  0.177485 -0.104782 -0.341169  0.361815
 13C   1pz        0.000004 -0.000001  0.000000  0.000001  0.000003 -0.000007
 13C   1px       -0.044934  0.014104 -0.016614  0.003553 -0.001631  0.026858
 13C   1py        0.051890 -0.017167  0.016984  0.000034  0.014196 -0.021676
 14H   1s        -0.002487 -0.017544  0.061261 -0.040012  0.085659 -0.021301
 15H   1s        -0.013557  0.017841  0.042778 -0.056200 -0.088542 -0.111825
 16H   1s        -0.016038  0.021093  0.043832 -0.065644 -0.079778 -0.119771
 17H   1s        -0.013558  0.017840  0.042778 -0.056199 -0.088544 -0.111825
 18H   1s         0.011152  0.038182  0.061837  0.144702 -0.018505 -0.024091
 19H   1s         0.009545  0.037172  0.045214  0.143876 -0.036292 -0.024095
 20H   1s         0.009549  0.037170  0.045223  0.143873 -0.036281 -0.024097
 21H   1s         0.028816 -0.012851  0.044746 -0.029814 -0.099399  0.108470
 22H   1s         0.030400 -0.013044  0.040394 -0.027015 -0.095126  0.110153
 23H   1s         0.030401 -0.013046  0.040395 -0.027014 -0.095128  0.110163
                     24        25        26        27        28        29   
                  -0.80865  -0.78838  -0.74571  -0.71526  -0.65012  -0.64074
                   2.00000   2.00000   2.00000   2.00000   2.00000   2.00000
                  --------  --------  --------  --------  --------  --------
  0O   1s        -0.052122 -0.006105 -0.039102  0.008730 -0.006506  0.000001
  0O   2s         0.219242  0.025327  0.174216 -0.039893  0.028494 -0.000004
  0O   1pz       -0.000004  0.000004 -0.000012  0.000003 -0.000023 -0.082357
  0O   1px       -0.032190  0.071347 -0.081179 -0.127942  0.010517  0.000021
  0O   1py       -0.056012 -0.029677 -0.043098  0.072963 -0.033501  0.000010
  1O   1s         0.040317 -0.051055  0.013904  0.000170 -0.019654 -0.000004
  1O   2s        -0.170583  0.216686 -0.058687 -0.000824  0.087354  0.000019
  1O   1pz       -0.000006  0.000008 -0.000007 -0.000007 -0.000015 -0.089150
  1O   1px       -0.041991  0.065983 -0.009936  0.011273  0.054338  0.000022
  1O   1py       -0.062399 -0.047662 -0.083844 -0.126058 -0.043084  0.000031
  2N   1s         0.032250  0.002780  0.042270 -0.008836 -0.043521  0.000013
  2N   2s        -0.120097 -0.010917 -0.167720  0.035273  0.183445 -0.000057
  2N   1pz       -0.000003 -0.000008 -0.000005 -0.000009 -0.000050 -0.236936
  2N   1px        0.034477 -0.312241 -0.088679 -0.198678 -0.083443  0.000019
  2N   1py        0.006030  0.131099 -0.046817  0.095284  0.172840 -0.000060
  3N   1s        -0.033548 -0.026411  0.058103 -0.024366  0.022583 -0.000009
  3N   2s         0.126903  0.101926 -0.239387  0.111593 -0.098108  0.000042
  3N   1pz        0.000013 -0.000024 -0.000008 -0.000003 -0.000004 -0.353372
  3N   1px        0.128250 -0.158673 -0.039719 -0.066993  0.348243 -0.000022
  3N   1py       -0.089656  0.137916  0.172850 -0.198319 -0.031988 -0.000061
  4N   1s        -0.041181 -0.042378  0.015609  0.007788 -0.036586  0.000003
  4N   2s         0.158790  0.163215 -0.064660 -0.033014  0.153050 -0.000013
  4N   1pz       -0.000008  0.000018 -0.000020 -0.000014 -0.000052 -0.198569
  4N   1px        0.196981 -0.087075  0.179609  0.163879  0.094090 -0.000056
  4N   1py        0.175638 -0.073829  0.169486  0.142108 -0.147539  0.000010
  5N   1s        -0.014794  0.041761  0.058747 -0.037907  0.029727 -0.000008
  5N   2s         0.049826 -0.152730 -0.227591  0.161993 -0.126413  0.000035
  5N   1pz        0.000009  0.000012 -0.000005  0.000003 -0.000043 -0.137102
  5N   1px        0.123036  0.152767 -0.067294 -0.000350 -0.205855  0.000031
  5N   1py       -0.044962 -0.002381 -0.012606  0.110311  0.036594  0.000015
  6C   1s         0.017896  0.063030 -0.046490 -0.006561 -0.030492  0.000002
  6C   2s        -0.054088 -0.184324  0.135625  0.030275  0.101443 -0.000005
  6C   1pz       -0.000037 -0.000007  0.000017  0.000018 -0.000075 -0.219831
  6C   1px       -0.166968  0.043923  0.159816 -0.010587 -0.186933  0.000060
  6C   1py        0.122241  0.111293  0.138005 -0.262538  0.061990 -0.000001
  7C   1s        -0.018365 -0.090074 -0.049065  0.017756  0.026926 -0.000011
  7C   2s         0.055033  0.276004  0.150541 -0.048180 -0.096459  0.000037
  7C   1pz       -0.000010  0.000008  0.000002  0.000013 -0.000040 -0.198490
  7C   1px       -0.119150  0.121233  0.004816  0.178466  0.125499 -0.000004
  7C   1py        0.062322  0.070976 -0.225275  0.159318 -0.079527 -0.000013
  8C   1s         0.094000  0.006059  0.046580 -0.017971  0.035711  0.000011
  8C   2s        -0.285996 -0.018594 -0.150091  0.053794 -0.115499 -0.000041
  8C   1pz        0.000008  0.000005  0.000003 -0.000005 -0.000032 -0.154070
  8C   1px       -0.025884  0.170837 -0.134778 -0.233891  0.035883  0.000031
  8C   1py       -0.129246 -0.078766  0.030381  0.102413 -0.075291  0.000013
  9C   1s        -0.063647  0.076328 -0.025173  0.000283  0.048077 -0.000006
  9C   2s         0.199536 -0.239522  0.080544 -0.000718 -0.164315  0.000022
  9C   1pz       -0.000010  0.000009 -0.000012 -0.000011 -0.000038 -0.172750
  9C   1px       -0.062102  0.107932 -0.022622  0.022793  0.070265 -0.000014
  9C   1py       -0.174135 -0.128616 -0.172529 -0.211345 -0.057402  0.000039
 10C   1s         0.097109 -0.000485 -0.067872 -0.013460 -0.045060  0.000009
 10C   2s        -0.305867  0.000547  0.215535  0.053021  0.152170 -0.000028
 10C   1pz        0.000010 -0.000023 -0.000015 -0.000006 -0.000016 -0.178550
 10C   1px        0.112935 -0.114698 -0.123778 -0.107805  0.022622 -0.000005
 10C   1py       -0.055123 -0.161264  0.001976  0.122522  0.171308  0.000031
 11C   1s        -0.034259  0.001294 -0.051485  0.004430  0.015268 -0.000006
 11C   2s         0.105991 -0.004390  0.163108 -0.013903 -0.049077  0.000018
 11C   1pz        0.000001 -0.000002  0.000006 -0.000005 -0.000037 -0.136739
 11C   1px        0.010255 -0.073564  0.034297 -0.100705 -0.104088  0.000050
 11C   1py        0.044766  0.030423  0.121482  0.019795 -0.119913  0.000053
 12C   1s         0.009725  0.018815 -0.032985  0.034938 -0.015395  0.000005
 12C   2s        -0.029927 -0.059550  0.105366 -0.113796  0.050252 -0.000016
 12C   1pz        0.000004 -0.000006 -0.000009 -0.000003  0.000001 -0.291214
 12C   1px        0.051534 -0.011921 -0.146921  0.154659 -0.000426  0.000055
 12C   1py       -0.010494  0.082223 -0.059279  0.082748 -0.277499  0.000045
 13C   1s         0.056416  0.056736 -0.011791 -0.006062  0.024983 -0.000001
 13C   2s        -0.173654 -0.175506  0.036292  0.019834 -0.079783  0.000003
 13C   1pz        0.000003  0.000011 -0.000011 -0.000007 -0.000013 -0.112842
 13C   1px       -0.006174 -0.070217  0.082060  0.093503 -0.123893 -0.000008
 13C   1py        0.086990  0.049981  0.024160  0.055188  0.131992 -0.000019
 14H   1s        -0.179271  0.020051  0.161371  0.106768  0.110326  0.000011
 15H   1s         0.044912  0.021182  0.085343  0.022604 -0.043366  0.079518
 16H   1s         0.031601 -0.043375  0.065666 -0.077797 -0.091779  0.000034
 17H   1s         0.044912  0.021188  0.085343  0.022611 -0.043395 -0.079480
 18H   1s        -0.045592  0.009201  0.114942 -0.110780 -0.066908  0.000129
 19H   1s        -0.003173 -0.050239  0.053486 -0.062885  0.139485  0.174379
 20H   1s        -0.003204 -0.050195  0.053520 -0.062945  0.139325 -0.174573
 21H   1s        -0.091299 -0.054475 -0.025654 -0.064848 -0.063036  0.000069
 22H   1s        -0.055403 -0.077862  0.043625  0.044983 -0.080121 -0.065952
 23H   1s        -0.055369 -0.077871  0.043687  0.045067 -0.080086  0.065910
                     30        31        32        33        34        35   
                  -0.62071  -0.61209  -0.58605  -0.57934  -0.55872  -0.55037
                   2.00000   2.00000   2.00000   2.00000   2.00000   2.00000
                  --------  --------  --------  --------  --------  --------
  0O   1s        -0.030504  0.000000 -0.002433 -0.000001  0.025497  0.022584
  0O   2s         0.148003 -0.000000  0.007863  0.000007 -0.125581 -0.113992
  0O   1pz       -0.000013  0.047680 -0.000008 -0.090394 -0.000002 -0.000006
  0O   1px        0.083771 -0.000054 -0.033412  0.000025  0.012897  0.112924
  0O   1py       -0.160231  0.000004  0.010837  0.000000  0.109575  0.056485
  1O   1s        -0.016852  0.000008  0.037722 -0.000018  0.033939  0.044752
  1O   2s         0.083255 -0.000041 -0.188609  0.000089 -0.169852 -0.231678
  1O   1pz        0.000063  0.136777 -0.000037 -0.021789 -0.000021 -0.000011
  1O   1px        0.045055 -0.000048 -0.138044  0.000081 -0.156440 -0.255260
  1O   1py        0.070949 -0.000025  0.055970 -0.000014  0.026411 -0.030232
  2N   1s         0.027202 -0.000009  0.003015 -0.000005  0.021850  0.012188
  2N   2s        -0.123165  0.000043 -0.007290  0.000020 -0.092852 -0.052824
  2N   1pz        0.000101  0.263315  0.000080  0.258901  0.000020  0.000007
  2N   1px       -0.081624  0.000015  0.193831 -0.000057  0.057772 -0.017348
  2N   1py       -0.235744  0.000074  0.137252 -0.000038 -0.009917 -0.054558
  3N   1s        -0.016345  0.000003  0.014504 -0.000005  0.009524  0.003292
  3N   2s         0.077132 -0.000015 -0.060712  0.000022 -0.045785 -0.015010
  3N   1pz        0.000004 -0.254295  0.000033  0.000744 -0.000029 -0.000004
  3N   1px       -0.057166  0.000075 -0.085319  0.000005  0.006928  0.175779
  3N   1py       -0.339458  0.000060 -0.165342  0.000058  0.127025 -0.025720
  4N   1s        -0.001636 -0.000001 -0.020481  0.000003  0.010225  0.017506
  4N   2s         0.005001  0.000005  0.094865 -0.000016 -0.042469 -0.076744
  4N   1pz        0.000087  0.262055 -0.000113 -0.280440 -0.000028 -0.000023
  4N   1px       -0.083537  0.000048  0.198084 -0.000076 -0.049790 -0.010978
  4N   1py       -0.033879 -0.000002 -0.194004  0.000057  0.041884 -0.005899
  5N   1s        -0.012007  0.000005  0.002070 -0.000004  0.016937 -0.005772
  5N   2s         0.057335 -0.000025 -0.006532  0.000016 -0.069277  0.030565
  5N   1pz        0.000023 -0.015678  0.000061  0.068377  0.000010 -0.000017
  5N   1px       -0.080664  0.000010  0.159188 -0.000074  0.301904  0.067517
  5N   1py        0.081977 -0.000015  0.003191 -0.000005 -0.048991  0.069509
  6C   1s        -0.000399 -0.000004 -0.044705  0.000011  0.021124 -0.020268
  6C   2s         0.008635  0.000013  0.152995 -0.000041 -0.072800  0.077757
  6C   1pz        0.000001 -0.032847  0.000042  0.001280 -0.000020 -0.000054
  6C   1px       -0.016880 -0.000010  0.040658  0.000007  0.003000 -0.132968
  6C   1py        0.144810 -0.000016  0.065303 -0.000032 -0.022223 -0.016939
  7C   1s        -0.033258  0.000008 -0.039591  0.000019 -0.033805  0.008938
  7C   2s         0.108985 -0.000027  0.143818 -0.000067  0.128394 -0.028599
  7C   1pz        0.000053  0.065082  0.000055  0.114294 -0.000014 -0.000027
  7C   1px        0.060430 -0.000023 -0.192917  0.000054 -0.131583 -0.007944
  7C   1py       -0.145098  0.000020 -0.025738 -0.000004  0.169726  0.062952
  8C   1s         0.050620 -0.000009  0.018972  0.000006 -0.027177 -0.006121
  8C   2s        -0.173359  0.000034 -0.067254 -0.000026  0.097706  0.022746
  8C   1pz        0.000041  0.093645 -0.000023 -0.142604 -0.000040 -0.000045
  8C   1px        0.166061 -0.000026 -0.083438  0.000018 -0.013129 -0.003248
  8C   1py       -0.054564  0.000009 -0.022202  0.000041 -0.033835 -0.075671
  9C   1s        -0.000219  0.000003 -0.003779  0.000010 -0.039084 -0.063601
  9C   2s         0.000535 -0.000012  0.011366 -0.000034  0.140022  0.228594
  9C   1pz        0.000092  0.239580 -0.000021 -0.021866 -0.000000  0.000023
  9C   1px       -0.070467  0.000017  0.130744 -0.000055  0.053201  0.096365
  9C   1py        0.070069 -0.000031  0.073997 -0.000020  0.036629  0.031093
 10C   1s         0.000846 -0.000002  0.012516 -0.000002 -0.015730  0.007567
 10C   2s         0.003015  0.000004 -0.044972  0.000008  0.052226 -0.028737
 10C   1pz        0.000012 -0.100166  0.000010  0.036107 -0.000058 -0.000036
 10C   1px       -0.118716  0.000027 -0.273919  0.000112 -0.267072 -0.106379
 10C   1py        0.239854 -0.000025  0.100148 -0.000041 -0.142424  0.058119
 11C   1s        -0.016846  0.000005  0.007990 -0.000002  0.002373  0.000027
 11C   2s         0.053282 -0.000015 -0.024345  0.000005 -0.008047 -0.000471
 11C   1pz        0.000092  0.201627  0.000081  0.356489  0.000050  0.000031
 11C   1px        0.114486 -0.000048  0.117273 -0.000053  0.024494 -0.286060
 11C   1py        0.188312 -0.000074 -0.207747  0.000029  0.015564  0.193112
 12C   1s         0.008424 -0.000002  0.004949 -0.000001  0.001909  0.002804
 12C   2s        -0.026383  0.000005 -0.016574  0.000004 -0.008394 -0.011646
 12C   1pz       -0.000002 -0.341175 -0.000037 -0.049341  0.000048  0.000032
 12C   1px        0.270754 -0.000039 -0.035530 -0.000001  0.219557 -0.199994
 12C   1py        0.051130 -0.000047  0.199972 -0.000035 -0.360852  0.077656
 13C   1s         0.001292 -0.000002  0.008400 -0.000001 -0.002736  0.000301
 13C   2s        -0.005751  0.000007 -0.023681  0.000003  0.008532 -0.001452
 13C   1pz        0.000058  0.204356 -0.000095 -0.355500 -0.000032 -0.000009
 13C   1px       -0.090083  0.000027 -0.142811  0.000013  0.023792 -0.193250
 13C   1py       -0.089161 -0.000000  0.185099 -0.000006 -0.070771 -0.195551
 14H   1s         0.151702 -0.000013  0.224456 -0.000100  0.182451  0.101426
 15H   1s         0.068768 -0.121179 -0.121107 -0.231448 -0.000182  0.156758
 16H   1s         0.108028 -0.000027  0.090792 -0.000010  0.015771 -0.257852
 17H   1s         0.068860  0.121121 -0.121016  0.231485 -0.000118  0.156841
 18H   1s        -0.189761  0.000213  0.104010  0.000015 -0.311997  0.196714
 19H   1s        -0.020523  0.213790 -0.104864  0.034694  0.193703 -0.060817
 20H   1s        -0.020674 -0.213933 -0.104763 -0.034683  0.193356 -0.060553
 21H   1s         0.105552 -0.000107 -0.082778  0.000181  0.036345  0.228542
 22H   1s        -0.043413  0.126244 -0.077791 -0.229174  0.011937 -0.102780
 23H   1s        -0.043585 -0.126144 -0.077641  0.229045  0.011938 -0.103020
                     36        37        38        39        40        41   
                  -0.54222  -0.53385  -0.52345  -0.51986  -0.49992  -0.49307
                   2.00000   2.00000   2.00000   2.00000   2.00000   2.00000
                  --------  --------  --------  --------  --------  --------
  0O   1s         0.075453  0.000014 -0.010133 -0.028247  0.045129 -0.000034
  0O   2s        -0.391725 -0.000065  0.056103  0.152868 -0.237503  0.000186
  0O   1pz        0.000127  0.109826 -0.000091 -0.000132  0.000156  0.132568
  0O   1px        0.063290 -0.000026 -0.102901 -0.237345  0.248606 -0.000191
  0O   1py        0.414283  0.000015 -0.043816 -0.140709  0.209468 -0.000234
  1O   1s         0.002460  0.000016  0.044801 -0.025188  0.034421 -0.000008
  1O   2s        -0.010471 -0.000085 -0.237810  0.129848 -0.179834  0.000042
  1O   1pz       -0.000006 -0.023331 -0.000029  0.000043  0.000151  0.280182
  1O   1px       -0.005303 -0.000091 -0.261377  0.127400 -0.176582  0.000006
  1O   1py        0.059449  0.000004 -0.036987  0.065071 -0.224179  0.000117
  2N   1s         0.003964  0.000000 -0.001680  0.001188 -0.001063  0.000000
  2N   2s        -0.025466 -0.000001  0.011587 -0.010757  0.011399 -0.000008
  2N   1pz       -0.000007  0.000605 -0.000008 -0.000006  0.000105  0.165730
  2N   1px       -0.147353 -0.000027  0.014820 -0.099113 -0.133606  0.000047
  2N   1py       -0.304011 -0.000076  0.074204 -0.064798  0.176902 -0.000151
  3N   1s        -0.001807  0.000005  0.003074 -0.000845 -0.002193 -0.000004
  3N   2s         0.006525 -0.000023 -0.011475  0.003709  0.010168  0.000020
  3N   1pz       -0.000050  0.222546 -0.000117  0.000038 -0.000105 -0.206252
  3N   1px        0.009372 -0.000091 -0.326944  0.053167 -0.002462  0.000023
  3N   1py        0.051142  0.000050  0.039135  0.138400 -0.063308  0.000064
  4N   1s         0.003363  0.000005  0.005571 -0.014959  0.024278 -0.000009
  4N   2s        -0.005689 -0.000017 -0.020070  0.068121 -0.116184  0.000044
  4N   1pz       -0.000023  0.004795 -0.000035 -0.000057  0.000134  0.207184
  4N   1px        0.196166  0.000063  0.130378  0.125728 -0.047382  0.000073
  4N   1py       -0.225783 -0.000106 -0.152735 -0.004127  0.210991 -0.000183
  5N   1s        -0.001263  0.000005  0.011002 -0.014237  0.015202 -0.000016
  5N   2s         0.007028 -0.000023 -0.054568  0.066533 -0.073157  0.000074
  5N   1pz       -0.000048  0.230161 -0.000099  0.000022 -0.000082 -0.159904
  5N   1px       -0.049179 -0.000075 -0.194167  0.074497 -0.138339  0.000103
  5N   1py        0.000350 -0.000043 -0.086506  0.035762 -0.033481  0.000055
  6C   1s         0.021985  0.000008  0.000827 -0.005429  0.012002 -0.000010
  6C   2s        -0.074015 -0.000031 -0.014011  0.017244 -0.036656  0.000033
  6C   1pz       -0.000045  0.254217 -0.000048  0.000018 -0.000031 -0.047921
  6C   1px       -0.038259  0.000018  0.276378 -0.011769 -0.015642  0.000032
  6C   1py       -0.039511  0.000005  0.005716 -0.200056  0.080037 -0.000102
  7C   1s        -0.014221  0.000002 -0.001659  0.010123 -0.015780  0.000011
  7C   2s         0.048708 -0.000011 -0.001292 -0.029602  0.052067 -0.000036
  7C   1pz       -0.000036  0.231287 -0.000081  0.000015 -0.000006 -0.043535
  7C   1px        0.136676  0.000015  0.011198  0.102117  0.091404 -0.000013
  7C   1py       -0.000187 -0.000039 -0.183560  0.147717 -0.068650  0.000064
  8C   1s        -0.041172 -0.000015  0.004224  0.029132 -0.027455  0.000009
  8C   2s         0.145224  0.000058 -0.020480 -0.108647  0.100431 -0.000028
  8C   1pz       -0.000018  0.158538 -0.000080 -0.000061  0.000085  0.164483
  8C   1px       -0.174474 -0.000060 -0.096095 -0.172685  0.027519 -0.000035
  8C   1py       -0.241292 -0.000024  0.097946  0.195255 -0.193424  0.000161
  9C   1s        -0.001201 -0.000014 -0.018801  0.013496 -0.023195  0.000017
  9C   2s         0.001658  0.000051  0.065995 -0.049143  0.085447 -0.000065
  9C   1pz       -0.000010 -0.017771  0.000005  0.000003  0.000231  0.360045
  9C   1px       -0.015037  0.000054  0.204203 -0.085231  0.142760 -0.000073
  9C   1py        0.109080  0.000059  0.031829 -0.048376 -0.262087  0.000174
 10C   1s        -0.004981 -0.000008 -0.013992 -0.004365 -0.006295  0.000004
 10C   2s         0.018734  0.000030  0.054706  0.016065  0.024146 -0.000015
 10C   1pz       -0.000038  0.226327 -0.000053  0.000019 -0.000079 -0.204745
 10C   1px        0.077233  0.000057  0.230280  0.003286  0.090168 -0.000021
 10C   1py       -0.028283 -0.000061 -0.067311 -0.103588  0.070915 -0.000049
 11C   1s         0.000025 -0.000000 -0.003615  0.003111 -0.007746  0.000006
 11C   2s        -0.005297 -0.000000  0.014565 -0.013188  0.031052 -0.000025
 11C   1pz        0.000103 -0.244541  0.000070 -0.000004 -0.000127 -0.181215
 11C   1px        0.165968 -0.000078 -0.152224  0.222141  0.235655 -0.000077
 11C   1py        0.221650  0.000119  0.003891 -0.011819 -0.196663  0.000143
 12C   1s        -0.000038 -0.000002 -0.007516  0.006507 -0.004570  0.000004
 12C   2s         0.000621  0.000009  0.030453 -0.025870  0.018298 -0.000016
 12C   1pz        0.000038 -0.333341  0.000123 -0.000007  0.000040  0.127290
 12C   1px       -0.027980  0.000106  0.234395 -0.085529  0.019149 -0.000032
 12C   1py       -0.016246 -0.000079 -0.009432 -0.069276  0.041139 -0.000034
 13C   1s        -0.002135 -0.000002 -0.002912 -0.004648  0.009125 -0.000012
 13C   2s         0.014537  0.000010  0.014218  0.018628 -0.036738  0.000046
 13C   1pz        0.000070 -0.166283  0.000099  0.000062 -0.000250 -0.325161
 13C   1px       -0.088204 -0.000126 -0.202723 -0.356442 -0.006419 -0.000036
 13C   1py        0.213966  0.000035  0.029445 -0.170368 -0.256143  0.000215
 14H   1s        -0.065594 -0.000074 -0.206866 -0.038138 -0.036126  0.000002
 15H   1s         0.052754  0.170464  0.044377 -0.068172 -0.147678  0.146713
 16H   1s         0.136038 -0.000099 -0.141255  0.203571  0.213989 -0.000095
 17H   1s         0.052867 -0.170307  0.044500 -0.068212 -0.147917 -0.146540
 18H   1s         0.014379  0.000103 -0.206455  0.036514  0.003866 -0.000083
 19H   1s         0.004559  0.247053  0.038586  0.026131 -0.019552 -0.108248
 20H   1s         0.004641 -0.247170  0.038564  0.026108 -0.019438  0.108365
 21H   1s        -0.137474  0.000114  0.070897  0.293055  0.198388  0.000050
 22H   1s        -0.037114 -0.119728 -0.102110 -0.183900 -0.023259 -0.246990
 23H   1s        -0.037122  0.119531 -0.102366 -0.184338 -0.023064  0.246812
                     42        43        44        45        46        47   
                  -0.47748  -0.46796  -0.38415  -0.37508  -0.34724  -0.32257
                   2.00000   2.00000   2.00000   2.00000   2.00000   2.00000
                  --------  --------  --------  --------  --------  --------
  0O   1s        -0.039903  0.000000  0.000001 -0.003518 -0.005351 -0.001620
  0O   2s         0.215517 -0.000007 -0.000008  0.020661  0.036624  0.010031
  0O   1pz       -0.000056 -0.446064  0.122690  0.000060 -0.000112 -0.000001
  0O   1px       -0.028826  0.000069  0.000172 -0.339608  0.400983 -0.632893
  0O   1py       -0.290611  0.000172 -0.000080  0.079120 -0.280951  0.213746
  1O   1s         0.065309  0.000009 -0.000002  0.004512 -0.002544  0.002001
  1O   2s        -0.348686 -0.000049  0.000014 -0.027470  0.016551 -0.015044
  1O   1pz       -0.000156  0.246948 -0.334807 -0.000192 -0.000067 -0.000074
  1O   1px       -0.429154 -0.000105  0.000084 -0.086514  0.106470  0.002430
  1O   1py        0.031401  0.000001 -0.000022  0.210703 -0.615937 -0.618536
  2N   1s         0.008653  0.000000  0.000002  0.000475 -0.027322 -0.018486
  2N   2s        -0.045293 -0.000003 -0.000011 -0.000635  0.142912  0.097858
  2N   1pz       -0.000078  0.252995  0.419886  0.000262  0.000030 -0.000098
  2N   1px       -0.223167 -0.000035  0.000032 -0.135764  0.090053  0.097881
  2N   1py       -0.069172 -0.000024  0.000004  0.008356 -0.186959 -0.113853
  3N   1s        -0.014033 -0.000002 -0.000019  0.017256  0.012939 -0.007552
  3N   2s         0.065826  0.000007  0.000097 -0.087677 -0.062283  0.034296
  3N   1pz        0.000055  0.029717 -0.457118 -0.000220 -0.000046 -0.000190
  3N   1px        0.137076  0.000016  0.000027  0.059403 -0.003983  0.032651
  3N   1py        0.064214  0.000002  0.000106 -0.196834 -0.049941 -0.003778
  4N   1s         0.003385 -0.000002  0.000008 -0.023519  0.041078 -0.003784
  4N   2s        -0.014173  0.000008 -0.000037  0.118704 -0.212355  0.019176
  4N   1pz        0.000016 -0.139399 -0.196031 -0.000124  0.000031  0.000180
  4N   1px       -0.134432 -0.000039  0.000049 -0.124928  0.076868 -0.261902
  4N   1py       -0.122355 -0.000029  0.000015  0.036434 -0.171754 -0.166534
  5N   1s        -0.018217 -0.000003 -0.000056  0.096239  0.032953 -0.016997
  5N   2s         0.089925  0.000016  0.000287 -0.492643 -0.176244  0.088892
  5N   1pz        0.000015  0.141589  0.133196 -0.000001 -0.000020  0.000288
  5N   1px       -0.019181 -0.000015  0.000027 -0.087514  0.044356  0.025092
  5N   1py        0.130345  0.000011  0.000370 -0.641893 -0.345687  0.128725
  6C   1s         0.000582  0.000001 -0.000020  0.042206 -0.011448  0.025846
  6C   2s         0.003499 -0.000010  0.000083 -0.169581  0.050981 -0.115891
  6C   1pz        0.000020 -0.114491  0.058313  0.000029  0.000058 -0.000193
  6C   1px       -0.070333 -0.000003  0.000072 -0.141810  0.016906 -0.076590
  6C   1py       -0.109208 -0.000003  0.000051 -0.067050 -0.231439  0.173196
  7C   1s         0.003837 -0.000001  0.000021 -0.032852  0.007267  0.000385
  7C   2s        -0.012328  0.000002 -0.000078  0.124693 -0.025546 -0.003218
  7C   1pz        0.000006  0.116340  0.387418  0.000199  0.000041  0.000036
  7C   1px        0.230145  0.000019  0.000030 -0.058330 -0.088233 -0.037363
  7C   1py        0.099214  0.000000 -0.000098  0.164368  0.149478 -0.075266
  8C   1s         0.005095  0.000024 -0.000001 -0.000951 -0.016875  0.001212
  8C   2s        -0.016763 -0.000102  0.000006  0.008079  0.063306  0.002352
  8C   1pz        0.000045 -0.470816  0.076145  0.000046 -0.000026  0.000011
  8C   1px        0.157280  0.000050 -0.000005 -0.010692  0.027651  0.070129
  8C   1py        0.172257  0.000027 -0.000038  0.037557  0.105225 -0.014596
  9C   1s        -0.020960  0.000003 -0.000003 -0.001182 -0.004013  0.006058
  9C   2s         0.073595 -0.000013  0.000015  0.004597  0.014521 -0.026575
  9C   1pz       -0.000084  0.260095 -0.227734 -0.000112 -0.000049 -0.000030
  9C   1px        0.297466  0.000024  0.000007  0.034540 -0.034879  0.045878
  9C   1py        0.092449  0.000024 -0.000025  0.040784 -0.015773  0.015132
 10C   1s        -0.001254  0.000001  0.000021 -0.034034 -0.017208  0.014999
 10C   2s         0.006957 -0.000002 -0.000075  0.124725  0.063826 -0.060048
 10C   1pz        0.000030  0.120935 -0.202474 -0.000114 -0.000043  0.000149
 10C   1px        0.034163 -0.000014 -0.000035  0.109943  0.025481 -0.047211
 10C   1py       -0.015073 -0.000004 -0.000046  0.127679 -0.005766  0.012152
 11C   1s         0.006779  0.000001 -0.000001  0.003342  0.000988 -0.002586
 11C   2s        -0.026538 -0.000005  0.000006 -0.015392 -0.003360  0.012586
 11C   1pz        0.000070 -0.196448 -0.131986 -0.000073  0.000005  0.000019
 11C   1px        0.187748  0.000025 -0.000001  0.007661  0.067703  0.049352
 11C   1py        0.074416  0.000023 -0.000035  0.056029  0.083100  0.023200
 12C   1s         0.005736  0.000002  0.000004 -0.004385 -0.001371  0.002047
 12C   2s        -0.023526 -0.000008 -0.000016  0.018140  0.005332 -0.008524
 12C   1pz       -0.000031  0.008661  0.106939  0.000072 -0.000004  0.000061
 12C   1px       -0.099240 -0.000025 -0.000026  0.017152  0.003307 -0.003176
 12C   1py       -0.042549  0.000012 -0.000055  0.088261  0.000793  0.014514
 13C   1s         0.001040  0.000000  0.000003 -0.000480  0.000276  0.000797
 13C   2s        -0.004902 -0.000001 -0.000013  0.001134  0.001013  0.001094
 13C   1pz        0.000020  0.082041  0.081063  0.000003  0.000074 -0.000045
 13C   1px        0.141484  0.000097 -0.000027  0.037091 -0.056094 -0.010160
 13C   1py        0.114005  0.000076  0.000002 -0.064134  0.119566 -0.050443
 14H   1s        -0.042228 -0.000002 -0.000057  0.097998  0.046356  0.016801
 15H   1s        -0.028980  0.163888  0.132924  0.009069  0.018373  0.004678
 16H   1s         0.159585 -0.000001 -0.000015  0.015116 -0.000234 -0.008460
 17H   1s        -0.028898 -0.163872 -0.132931  0.008906  0.018362  0.004727
 18H   1s         0.062081  0.000016 -0.000120  0.052512  0.002216  0.014595
 19H   1s         0.006699  0.001771 -0.126834 -0.045889 -0.004886 -0.004234
 20H   1s         0.006693 -0.001774  0.126985 -0.045684 -0.004856 -0.004131
 21H   1s        -0.152014 -0.000143 -0.000041 -0.003545 -0.013284 -0.013925
 22H   1s         0.077156  0.079231  0.072652  0.017924 -0.017986  0.006894
 23H   1s         0.077297 -0.079092 -0.072615  0.017860 -0.017980  0.007011
[...]
  5N   2s         0.202296 -0.089294  0.429273 -0.230616 -0.692237 -0.216133
  5N   1pz       -0.000012 -0.000016 -0.000055  0.000071  0.000020  0.000019
  5N   1px       -0.127158 -0.215932 -0.451854  0.659644 -0.271773  0.161738
  5N   1py        0.015369  0.031043 -0.241227  0.101487  0.618518  0.172105
  6C   1s         0.092687 -0.049597 -0.027563 -0.044666 -0.017103 -0.011108
  6C   2s        -0.612079  0.338572  0.184681  0.313197  0.129569  0.049559
  6C   1pz        0.000044  0.000028  0.000003  0.000022 -0.000001 -0.000134
  6C   1px       -0.141262 -0.222113 -0.056410 -0.298268  0.169607 -0.357608
  6C   1py       -0.243490 -0.356085  0.287086  0.216195 -0.015213  0.169870
  7C   1s        -0.081675 -0.082682  0.046715  0.058554 -0.041404  0.014466
  7C   2s         0.551639  0.553957 -0.334253 -0.399778  0.283500 -0.102554
  7C   1pz        0.000002  0.000015 -0.000013 -0.000021 -0.000017  0.000023
  7C   1px        0.200016  0.256443 -0.010880  0.180944 -0.551786 -0.119292
  7C   1py       -0.463211  0.149920  0.205867 -0.176629  0.554758  0.024737
  8C   1s        -0.043180 -0.000579 -0.047314 -0.084170  0.018515  0.038418
  8C   2s         0.275463 -0.008974  0.308539  0.571962 -0.133307 -0.251315
  8C   1pz       -0.000108 -0.000002 -0.000068 -0.000222  0.000061  0.000144
  8C   1px       -0.067341  0.517088  0.388490 -0.004672  0.190267  0.017524
  8C   1py       -0.050291 -0.198644  0.215211 -0.418405  0.103908  0.593547
  9C   1s        -0.043264  0.085863  0.010135  0.018122  0.049624 -0.068718
  9C   2s         0.279015 -0.556161 -0.066903 -0.120919 -0.339033  0.475076
  9C   1pz        0.000030 -0.000003  0.000039 -0.000008 -0.000049  0.000114
  9C   1px        0.153107  0.276138  0.067893 -0.042704 -0.367071  0.904068
  9C   1py        0.123875 -0.187308  0.697479  0.443356 -0.106609 -0.052758
 10C   1s        -0.026115  0.042461  0.035558 -0.056393 -0.049687 -0.028799
 10C   2s         0.161888 -0.290090 -0.237656  0.382462  0.337197  0.202338
 10C   1pz       -0.000036  0.000020 -0.000083  0.000088  0.000030  0.000033
 10C   1px        0.070283  0.074434 -0.524631  0.652428  0.552383  0.311244
 10C   1py       -0.714949  0.058553 -0.377165  0.183156 -0.478648 -0.035831
 11C   1s         0.062705 -0.015750 -0.033873 -0.002566 -0.016822 -0.034183
 11C   2s        -0.391008  0.097707  0.212436  0.020229  0.108943  0.228603
 11C   1pz        0.000006 -0.000016 -0.000003  0.000003 -0.000004  0.000009
 11C   1px       -0.105488 -0.418066  0.100171  0.090960  0.033069 -0.054631
 11C   1py        0.255055  0.122568 -0.198748 -0.023325 -0.095473 -0.114971
 12C   1s         0.000809 -0.019891 -0.006654  0.038998  0.031846  0.022894
 12C   2s         0.000073  0.126387  0.041463 -0.250349 -0.206137 -0.151838
 12C   1pz       -0.000100 -0.000014 -0.000014  0.000036 -0.000005  0.000020
 12C   1px       -0.358562  0.146009  0.002401 -0.084882 -0.219353 -0.052451
 12C   1py        0.255962 -0.078817  0.018827 -0.193930 -0.018003 -0.102137
 13C   1s        -0.034669 -0.044652  0.023654 -0.014545  0.017965 -0.011804
 13C   2s         0.220409  0.282034 -0.150310  0.095496 -0.119139  0.078689
 13C   1pz       -0.000051 -0.000019  0.000060 -0.000025  0.000019  0.000026
 13C   1px       -0.096193 -0.332962 -0.195647 -0.127171  0.040205 -0.074863
 13C   1py       -0.017844 -0.087396 -0.248892 -0.043782 -0.038949 -0.000196
 14H   1s         0.222058  0.160372 -0.135737  0.209060  0.351853  0.118897
 15H   1s         0.034091 -0.193543  0.018098  0.018248 -0.004835 -0.055235
 16H   1s         0.262911  0.307075 -0.188011 -0.083073 -0.059104 -0.069665
 17H   1s         0.034070 -0.193582  0.018115  0.018255 -0.004828 -0.055255
 18H   1s        -0.374228  0.072939 -0.033357  0.104689 -0.069926  0.050408
 19H   1s         0.145581 -0.097867 -0.005253  0.015140  0.085041  0.019330
 20H   1s         0.145292 -0.097685 -0.005248  0.015169  0.084915  0.019325
 21H   1s        -0.155481 -0.334115 -0.183012 -0.130019  0.039815 -0.042190
 22H   1s        -0.046841  0.042288  0.159013  0.023955  0.033033 -0.009160
 23H   1s        -0.046854  0.042497  0.159367  0.024026  0.033071 -0.009122
                     78        79   
                   1.06548   1.11748
                   0.00000   0.00000
                  --------  --------
  0O   1s        -0.029608  0.057997
  0O   2s         0.221632 -0.451195
  0O   1pz        0.000064 -0.000197
  0O   1px       -0.009857 -0.191393
  0O   1py        0.256732 -0.428864
  1O   1s         0.000653  0.043698
  1O   2s        -0.003959 -0.338851
  1O   1pz       -0.000007  0.000058
  1O   1px        0.013924  0.352415
  1O   1py       -0.073417  0.025442
  2N   1s        -0.015879 -0.030600
  2N   2s         0.125846  0.244085
  2N   1pz       -0.000019 -0.000024
  2N   1px       -0.428245 -0.292947
  2N   1py        0.224998 -0.320517
  3N   1s        -0.026711 -0.033666
  3N   2s         0.216237  0.265112
  3N   1pz        0.000020  0.000044
  3N   1px        0.155022  0.368387
  3N   1py        0.319053 -0.006152
  4N   1s         0.005497 -0.023362
  4N   2s        -0.044704  0.187271
  4N   1pz       -0.000070  0.000059
  4N   1px        0.274870 -0.278160
  4N   1py        0.115781  0.336416
  5N   1s         0.032625  0.021605
  5N   2s        -0.250379 -0.169371
  5N   1pz        0.000027 -0.000003
  5N   1px        0.229592 -0.206060
  5N   1py        0.223517  0.149436
  6C   1s         0.066022 -0.016410
  6C   2s        -0.504321  0.149466
  6C   1pz        0.000046  0.000163
  6C   1px       -0.032828  0.749425
  6C   1py       -0.979835 -0.232050
  7C   1s        -0.056570  0.015876
  7C   2s         0.457330 -0.115129
  7C   1pz       -0.000039 -0.000045
  7C   1px       -0.699968 -0.499995
  7C   1py       -0.676612  0.288951
  8C   1s         0.039951  0.007024
  8C   2s        -0.304730 -0.065514
  8C   1pz        0.000118 -0.000065
  8C   1px        0.536880 -0.201170
  8C   1py        0.079391 -0.886703
  9C   1s        -0.011948 -0.010543
  9C   2s         0.085226  0.084799
  9C   1pz        0.000025  0.000046
  9C   1px       -0.071397  0.593070
  9C   1py        0.328404  0.109472
 10C   1s        -0.003868  0.005062
 10C   2s         0.036136 -0.034235
 10C   1pz        0.000041 -0.000012
 10C   1px        0.117423 -0.081099
 10C   1py        0.361315 -0.020514
 11C   1s         0.008605 -0.023249
 11C   2s        -0.056314  0.159434
 11C   1pz        0.000007 -0.000003
 11C   1px        0.099441 -0.009714
 11C   1py        0.000632 -0.116344
 12C   1s        -0.016580 -0.010144
 12C   2s         0.110037  0.071179
 12C   1pz       -0.000003 -0.000017
 12C   1px        0.077073 -0.016884
 12C   1py        0.069343  0.088395
 13C   1s         0.005813 -0.028155
 13C   2s        -0.039906  0.196209
 13C   1pz        0.000020 -0.000035
 13C   1px       -0.029625 -0.077816
 13C   1py       -0.052230  0.086826
 14H   1s        -0.043225 -0.027493
 15H   1s         0.043497 -0.017522
 16H   1s        -0.047174 -0.062966
 17H   1s         0.043502 -0.017520
 18H   1s        -0.002123 -0.054573
 19H   1s        -0.016932  0.007674
 20H   1s        -0.016918  0.007643
 21H   1s        -0.025451 -0.062986
 22H   1s         0.028432 -0.042717
 23H   1s         0.028500 -0.042778



                    ********************************
                    * MULLIKEN POPULATION ANALYSIS *
                    ********************************

-----------------------
MULLIKEN ATOMIC CHARGES
-----------------------
   0 O :   -0.286970
   1 O :   -0.305870
   2 N :   -0.295784
   3 N :   -0.232602
   4 N :   -0.309138
   5 N :   -0.293204
   6 C :    0.007624
   7 C :    0.188417
   8 C :    0.296462
   9 C :    0.405878
  10 C :    0.146956
  11 C :   -0.067993
  12 C :   -0.068863
  13 C :   -0.075815
  14 H :    0.092258
  15 H :    0.080818
  16 H :    0.100019
  17 H :    0.080822
  18 H :    0.089397
  19 H :    0.098195
  20 H :    0.098161
  21 H :    0.095779
  22 H :    0.077709
  23 H :    0.077741
Sum of atomic charges:   -0.0000000

--------------------------------
MULLIKEN REDUCED ORBITAL CHARGES
--------------------------------
  0 O s       :     3.866333  s :     3.866333
      pz      :     1.296454  p :     4.420637
      px      :     1.794346
      py      :     1.329837
  1 O s       :     3.864452  s :     3.864452
      pz      :     1.344110  p :     4.441418
      px      :     1.240475
      py      :     1.856833
  2 N s       :     3.413985  s :     3.413985
      pz      :     1.732893  p :     3.881800
      px      :     1.066753
      py      :     1.082154
  3 N s       :     3.434436  s :     3.434436
      pz      :     1.568617  p :     3.798166
      px      :     1.117584
      py      :     1.111965
  4 N s       :     3.435468  s :     3.435468
      pz      :     1.735883  p :     3.873670
      px      :     1.072573
      py      :     1.065213
  5 N s       :     3.654133  s :     3.654133
      pz      :     1.199378  p :     3.639071
      px      :     0.967227
      py      :     1.472465
  6 C s       :     3.054125  s :     3.054125
      pz      :     1.211767  p :     2.938250
      px      :     0.781722
      py      :     0.944761
  7 C s       :     3.050955  s :     3.050955
      pz      :     1.013214  p :     2.760627
      px      :     0.826902
      py      :     0.920511
  8 C s       :     3.051720  s :     3.051720
      pz      :     0.915927  p :     2.651818
      px      :     0.842621
      py      :     0.893270
  9 C s       :     3.017150  s :     3.017150
      pz      :     0.919357  p :     2.576973
      px      :     0.843084
      py      :     0.814532
 10 C s       :     3.081970  s :     3.081970
      pz      :     1.021136  p :     2.771075
      px      :     0.966116
      py      :     0.783823
 11 C s       :     3.163702  s :     3.163702
      pz      :     1.045846  p :     2.904291
      px      :     1.024336
      py      :     0.834109
 12 C s       :     3.164342  s :     3.164342
      pz      :     1.063577  p :     2.904520
      px      :     0.911727
      py      :     0.929217
 13 C s       :     3.164678  s :     3.164678
      pz      :     1.043546  p :     2.911137
      px      :     0.954645
      py      :     0.912946
 14 H s       :     0.907742  s :     0.907742
 15 H s       :     0.919182  s :     0.919182
 16 H s       :     0.899981  s :     0.899981
 17 H s       :     0.919178  s :     0.919178
 18 H s       :     0.910603  s :     0.910603
 19 H s       :     0.901805  s :     0.901805
 20 H s       :     0.901839  s :     0.901839
 21 H s       :     0.904221  s :     0.904221
 22 H s       :     0.922291  s :     0.922291
 23 H s       :     0.922259  s :     0.922259


                     *******************************
                     * LOEWDIN POPULATION ANALYSIS *
                     *******************************

----------------------
LOEWDIN ATOMIC CHARGES
----------------------
   0 O :   -0.243932
   1 O :   -0.268626
   2 N :   -0.157342
   3 N :   -0.058784
   4 N :   -0.188728
   5 N :   -0.239332
   6 C :   -0.072407
   7 C :    0.120504
   8 C :    0.223023
   9 C :    0.288056
  10 C :    0.095992
  11 C :    0.003215
  12 C :    0.003600
  13 C :   -0.003889
  14 H :    0.050721
  15 H :    0.042781
  16 H :    0.059832
  17 H :    0.042784
  18 H :    0.051608
  19 H :    0.056730
  20 H :    0.056702
  21 H :    0.056618
  22 H :    0.040422
  23 H :    0.040451

-------------------------------
LOEWDIN REDUCED ORBITAL CHARGES
-------------------------------
  0 O s       :     3.759274  s :     3.759274
      pz      :     1.297941  p :     4.484658
      px      :     1.805754
      py      :     1.380964
  1 O s       :     3.757257  s :     3.757257
      pz      :     1.346091  p :     4.511369
      px      :     1.303054
      py      :     1.862224
  2 N s       :     3.235411  s :     3.235411
      pz      :     1.724833  p :     3.921931
      px      :     1.093915
      py      :     1.103183
  3 N s       :     3.242130  s :     3.242130
      pz      :     1.559236  p :     3.816654
      px      :     1.129195
      py      :     1.128223
  4 N s       :     3.270643  s :     3.270643
      pz      :     1.727997  p :     3.918085
      px      :     1.097378
      py      :     1.092710
  5 N s       :     3.501055  s :     3.501055
      pz      :     1.199113  p :     3.738277
      px      :     1.026997
      py      :     1.512167
  6 C s       :     2.992202  s :     2.992202
      pz      :     1.213593  p :     3.080204
      px      :     0.861733
      py      :     1.004878
  7 C s       :     2.990297  s :     2.990297
      pz      :     1.017162  p :     2.889200
      px      :     0.895686
      py      :     0.976352
  8 C s       :     3.000849  s :     3.000849
      pz      :     0.919633  p :     2.776128
      px      :     0.903077
      py      :     0.953418
  9 C s       :     2.990563  s :     2.990563
      pz      :     0.925504  p :     2.721381
      px      :     0.916069
      py      :     0.879808
 10 C s       :     3.008670  s :     3.008670
      pz      :     1.027302  p :     2.895338
      px      :     1.002594
      py      :     0.865442
 11 C s       :     2.998821  s :     2.998821
      pz      :     1.063981  p :     2.997964
      px      :     1.046918
      py      :     0.887065
 12 C s       :     2.998227  s :     2.998227
      pz      :     1.078419  p :     2.998173
      px      :     0.952667
      py      :     0.967087
 13 C s       :     3.000093  s :     3.000093
      pz      :     1.062437  p :     3.003796
      px      :     0.987754
      py      :     0.953606
 14 H s       :     0.949279  s :     0.949279
 15 H s       :     0.957219  s :     0.957219
 16 H s       :     0.940168  s :     0.940168
 17 H s       :     0.957216  s :     0.957216
 18 H s       :     0.948392  s :     0.948392
 19 H s       :     0.943270  s :     0.943270
 20 H s       :     0.943298  s :     0.943298
 21 H s       :     0.943382  s :     0.943382
 22 H s       :     0.959578  s :     0.959578
 23 H s       :     0.959549  s :     0.959549


                      *****************************
                      * MAYER POPULATION ANALYSIS *
                      *****************************

  NA   - Mulliken gross atomic population
  ZA   - Total nuclear charge
  QA   - Mulliken gross atomic charge
  VA   - Mayer's total valence
  BVA  - Mayer's bonded valence
  FA   - Mayer's free valence

  ATOM       NA         ZA         QA         VA         BVA        FA
  0 O      8.2870     8.0000    -0.2870     2.1336     2.1336    -0.0000
  1 O      8.3059     8.0000    -0.3059     2.1314     2.1314     0.0000
  2 N      7.2958     7.0000    -0.2958     3.2797     3.2797    -0.0000
  3 N      7.2326     7.0000    -0.2326     3.4618     3.4618     0.0000
  4 N      7.3091     7.0000    -0.3091     3.2589     3.2589    -0.0000
  5 N      7.2932     7.0000    -0.2932     2.9987     2.9987     0.0000
  6 C      5.9924     6.0000     0.0076     3.8854     3.8854    -0.0000
  7 C      5.8116     6.0000     0.1884     3.9510     3.9510    -0.0000
  8 C      5.7035     6.0000     0.2965     3.9409     3.9409     0.0000
  9 C      5.5941     6.0000     0.4059     3.9344     3.9344    -0.0000
 10 C      5.8530     6.0000     0.1470     3.9182     3.9182     0.0000
 11 C      6.0680     6.0000    -0.0680     3.9028     3.9028    -0.0000
 12 C      6.0689     6.0000    -0.0689     3.8940     3.8940    -0.0000
 13 C      6.0758     6.0000    -0.0758     3.9116     3.9116     0.0000
 14 H      0.9077     1.0000     0.0923     0.9915     0.9915     0.0000
 15 H      0.9192     1.0000     0.0808     0.9935     0.9935    -0.0000
 16 H      0.9000     1.0000     0.1000     0.9900     0.9900    -0.0000
 17 H      0.9192     1.0000     0.0808     0.9935     0.9935     0.0000
 18 H      0.9106     1.0000     0.0894     0.9920     0.9920    -0.0000
 19 H      0.9018     1.0000     0.0982     0.9904     0.9904     0.0000
 20 H      0.9018     1.0000     0.0982     0.9904     0.9904     0.0000
 21 H      0.9042     1.0000     0.0958     0.9908     0.9908     0.0000
 22 H      0.9223     1.0000     0.0777     0.9940     0.9940     0.0000
 23 H      0.9223     1.0000     0.0777     0.9940     0.9940     0.0000

  Mayer bond orders larger than 0.1
B(  0-O ,  4-N ) :   0.1263 B(  0-O ,  8-C ) :   1.8356 B(  1-O ,  2-N ) :   0.1210 
B(  1-O ,  4-N ) :   0.1142 B(  1-O ,  9-C ) :   1.8280 B(  2-N ,  7-C ) :   1.0465 
B(  2-N ,  9-C ) :   1.0137 B(  2-N , 11-C ) :   0.9390 B(  3-N ,  5-N ) :   0.1003 
B(  3-N ,  6-C ) :   1.0875 B(  3-N , 10-C ) :   1.2286 B(  3-N , 12-C ) :   0.9366 
B(  4-N ,  8-C ) :   0.9868 B(  4-N ,  9-C ) :   1.0059 B(  4-N , 13-C ) :   0.9454 
B(  5-N ,  7-C ) :   1.2698 B(  5-N , 10-C ) :   1.5264 B(  6-C ,  7-C ) :   1.4431 
B(  6-C ,  8-C ) :   1.0431 B(  6-C , 10-C ) :   0.1145 B( 10-C , 14-H ) :   0.9587 
B( 11-C , 15-H ) :   0.9726 B( 11-C , 16-H ) :   0.9718 B( 11-C , 17-H ) :   0.9726 
B( 12-C , 18-H ) :   0.9771 B( 12-C , 19-H ) :   0.9699 B( 12-C , 20-H ) :   0.9699 
B( 13-C , 21-H ) :   0.9718 B( 13-C , 22-H ) :   0.9730 B( 13-C , 23-H ) :   0.9730 


-------
TIMINGS
-------

Total SCF time: 0 days 0 hours 0 min 15 sec 

Total time                  ....      15.100 sec
Sum of individual times     ....      15.090 sec  ( 99.9%)

Fock matrix formation       ....      13.802 sec  ( 91.4%)
Diagonalization             ....       0.005 sec  (  0.0%)
Density matrix formation    ....       0.001 sec  (  0.0%)
Population analysis         ....       0.001 sec  (  0.0%)
Initial guess               ....       0.700 sec  (  4.6%)
Orbital Transformation      ....       0.000 sec  (  0.0%)
Orbital Orthonormalization  ....       0.000 sec  (  0.0%)
DIIS solution               ....       0.001 sec  (  0.0%)
SOSCF solution              ....       0.002 sec  (  0.0%)

-------------------------   --------------------
FINAL SINGLE POINT ENERGY      -667.727874102698
-------------------------   --------------------


                            ***************************************
                            *     ORCA property calculations      *
                            ***************************************

                                    ---------------------
                                    Active property flags
                                    ---------------------
   (+) Dipole Moment


------------------------------------------------------------------------------
                       ORCA ELECTRIC PROPERTIES CALCULATION
------------------------------------------------------------------------------

Dipole Moment Calculation                       ... on
Quadrupole Moment Calculation                   ... off
Polarizability Calculation                      ... off
GBWName                                         ... caffeine.input.gbw
Electron density file                           ... caffeine.input.scfp.tmp

-------------
DIPOLE MOMENT
-------------
                                X             Y             Z
Electronic contribution:      0.43069       0.51798       0.00062
Nuclear contribution   :     -1.71679      -0.61334      -0.00068
                        -----------------------------------------
Total Dipole Moment    :     -1.28610      -0.09537      -0.00005
                        -----------------------------------------
Magnitude (a.u.)       :      1.28964
Magnitude (Debye)      :      3.27799


Timings for individual modules:

Sum of individual times         ...       15.362 sec (=   0.256 min)
GTO integral calculation        ...        0.254 sec (=   0.004 min)   1.7 %
SCF iterations                  ...       15.108 sec (=   0.252 min)  98.3 %
                             ****ORCA TERMINATED NORMALLY****
TOTAL RUN TIME: 0 days 0 hours 0 minutes 15 seconds 501 msec
