
                                 *****************
                                 * O   R   C   A *
                                 *****************

           --- An Ab Initio, DFT and Semiempirical electronic structure package ---

                  #######################################################
                  #                        -***-                        #
                  #  Department of molecular theory and spectroscopy    #
                  #              Directorship: Frank Neese              #
                  # Max Planck Institute for Chemical Energy Conversion #
                  #                  D-45470 Muelheim/Ruhr              #
                  #                       Germany                       #
                  #                                                     #
                  #                  All rights reserved                #
                  #                        -***-                        #
                  #######################################################


                         Program Version 4.0.0 -  RELEASE  -


 With contributions from (in alphabetic order):
   Daniel Aravena         : Magnetic Properties
   Michael Atanasov       : Ab Initio Ligand Field Theory
   Ute Becker             : Parallelization
   Martin Brehm           : Molecular dynamics
   Dmytro Bykov           : SCF Hessian
   Vijay G. Chilkuri      : MRCI spin determinant printing
   Dipayan Datta          : RHF DLPNO-CCSD density
   Achintya Kumar Dutta   : EOM-CC, STEOM-CC
   Dmitry Ganyushin       : Spin-Orbit,Spin-Spin,Magnetic field MRCI
   Yang Guo               : DLPNO-NEVPT2, CIM, IAO-localization
   Andreas Hansen         : Spin unrestricted coupled pair/coupled cluster methods
   Lee Huntington         : MR-EOM, pCC
   Robert Izsak           : Overlap fitted RIJCOSX, COSX-SCS-MP3, EOM
   Christian Kollmar      : KDIIS, OOCD, Brueckner-CCSD(T), CCSD density
   Simone Kossmann        : Meta GGA functionals, TD-DFT gradient, OOMP2, MP2 Hessian
   Martin Krupicka        : AUTO-CI
   Dagmar Lenk            : GEPOL surface
   Dimitrios Liakos       : Extrapolation schemes; parallel MDCI
   Dimitrios Manganas     : ROCIS; embedding schemes
   Dimitrios Pantazis     : SARC Basis sets
   Taras Petrenko         : DFT Hessian,TD-DFT gradient, ASA, ECA, R-Raman, ABS, FL, XAS/XES, NRVS
   Peter Pinski           : DLPNO-MP2
   Christoph Reimann      : Effective Core Potentials
   Marius Retegan         : Local ZFS, SOC
   Christoph Riplinger    : Optimizer, TS searches, QM/MM, DLPNO-CCSD(T), (RO)-DLPNO pert. Triples
   Tobias Risthaus        : Range-separated hybrids, TD-DFT gradient, RPA, STAB
   Michael Roemelt        : Restricted open shell CIS
   Masaaki Saitow         : Open-shell DLPNO
   Barbara Sandhoefer     : DKH picture change effects
   Kantharuban Sivalingam : CASSCF convergence, NEVPT2, FIC-MRCI
   Georgi Stoychev        : AutoAux
   Boris Wezisla          : Elementary symmetry handling
   Frank Wennmohs         : Technical directorship


 We gratefully acknowledge several colleagues who have allowed us to
 interface, adapt or use parts of their codes:
   Stefan Grimme, W. Hujo, H. Kruse,             : VdW corrections, initial TS optimization,
                  C. Bannwarth                     DFT functionals, gCP, sTDA/sTD-DF
   Ed Valeev                                     : LibInt (2-el integral package), F12 methods
   Garnet Chan, S. Sharma, J. Yang, R. Olivares  : DMRG
   Ulf Ekstrom                                   : XCFun DFT Library
   Mihaly Kallay                                 : mrcc  (arbitrary order and MRCC methods)
   Jiri Pittner, Ondrej Demel                    : Mk-CCSD
   Frank Weinhold                                : gennbo (NPA and NBO analysis)
   Christopher J. Cramer and Donald G. Truhlar   : smd solvation model


 Your calculation uses the libint2 library for the computation of 2-el integrals
 For citations please refer to: http://libint.valeyev.net

 This ORCA versions uses:
   CBLAS   interface :  Fast vector & matrix operations
   LAPACKE interface :  Fast linear algebra routines
   SCALAPACK package :  Parallel linear algebra routines




*****************************************
The coordinations will be read from file: water_libint.xyz
*****************************************


Your calculation utilizes the basis: aug-cc-pVDZ 
    H, B-Ne : Obtained from the ccRepo (grant-hill.group.shef.ac.uk/ccrepo) Feb. 2017
              R. A. Kendall, T. H. Dunning, Jr., R. J. Harrison, J. Chem. Phys. 96, 6796 (1992)
         He : Obtained from the ccRepo (grant-hill.group.shef.ac.uk/ccrepo) Feb. 2017
              D. E. Woon, T. H. Dunning, Jr., J. Chem. Phys. 100, 2975 (1994)
  Li-Be, Na : Obtained from the ccRepo (grant-hill.group.shef.ac.uk/ccrepo) Feb. 2017
              B. P. Prascher, D. E. Woon, K. A. Peterson, T. H. Dunning, Jr., A. K. Wilson, Theor. Chem. Acc. 128, 69 (2011)
         Mg : Obtained from the Peterson Research Group Website (tyr0.chem.wsu.edu/~kipeters) Feb. 2017
              B. P. Prascher, D. E. Woon, K. A. Peterson, T. H. Dunning, Jr., A. K. Wilson, Theor. Chem. Acc. 128, 69 (2011)
      Al-Ar : Obtained from the ccRepo (grant-hill.group.shef.ac.uk/ccrepo) Feb. 2017
              D. E. Woon, T. H. Dunning, Jr., J. Chem. Phys. 98, 1358 (1993)
      Sc-Zn : Obtained from the ccRepo (grant-hill.group.shef.ac.uk/ccrepo) Feb. 2017
              N. B. Balabanov, K. A. Peterson, J. Chem. Phys. 123, 064107 (2005)
              N. B. Balabanov, K. A. Peterson, J. Chem. Phys. 125, 074110 (2006)
      Ga-Kr : Obtained from the ccRepo (grant-hill.group.shef.ac.uk/ccrepo) Feb. 2017
              A. K. Wilson, D. E. Woon, K. A. Peterson, T. H. Dunning, Jr., J. Chem. Phys. 110, 7667 (1999)

================================================================================
                                        WARNINGS
                       Please study these warnings very carefully!
================================================================================

Warning: TCutStore was < 0. Adjusted to Thresh (uncritical)

INFO   : the flag for use of LIBINT has been found!

================================================================================
                                       INPUT FILE
================================================================================
NAME = orca_bigbasis.input
|  1> ! HF aug-cc-pVDZ PrintBasis
|  2> %scf print[p_mos] 1 end 
|  3> 
|  4> *xyzfile 0 1 water_libint.xyz 
|  5> 
|  6>                          ****END OF INPUT****
================================================================================

                       ****************************
                       * Single Point Calculation *
                       ****************************

---------------------------------
CARTESIAN COORDINATES (ANGSTROEM)
---------------------------------
  O      0.000000   -0.075790    0.000000
  H      0.866810    0.601440    0.000000
  H     -0.866810    0.601440    0.000000

----------------------------
CARTESIAN COORDINATES (A.U.)
----------------------------
  NO LB      ZA    FRAG     MASS         X           Y           Z
   0 O     8.0000    0    15.999    0.000000   -0.143222    0.000000
   1 H     1.0000    0     1.008    1.638034    1.136557    0.000000
   2 H     1.0000    0     1.008   -1.638034    1.136557    0.000000

--------------------------------
INTERNAL COORDINATES (ANGSTROEM)
--------------------------------
 O      0   0   0     0.000000000000     0.00000000     0.00000000
 H      1   0   0     1.100000022273     0.00000000     0.00000000
 H      1   2   0     1.100000022273   103.99968756     0.00000000

---------------------------
INTERNAL COORDINATES (A.U.)
---------------------------
 O      0   0   0     0.000000000000     0.00000000     0.00000000
 H      1   0   0     2.078698789403     0.00000000     0.00000000
 H      1   2   0     2.078698789403   103.99968756     0.00000000

---------------------
BASIS SET INFORMATION
---------------------
There are 2 groups of distinct atoms

 Group   1 Type O   : 18s5p2d contracted to 4s3p2d pattern {8811/311/11}
 Group   2 Type H   : 5s2p contracted to 3s2p pattern {311/11}

Atom   0O    basis set group =>   1
Atom   1H    basis set group =>   2
Atom   2H    basis set group =>   2

-------------------------
BASIS SET IN INPUT FORMAT
-------------------------

 # Basis set for element : H 
 NewGTO H 
 S 3 
   1      13.0100000000      0.0334987264
   2       1.9620000000      0.2348008012
   3       0.4446000000      0.8136829579
 S 1 
   1       0.1220000000      1.0000000000
 S 1 
   1       0.0297400000      1.0000000000
 P 1 
   1       0.7270000000      1.0000000000
 P 1 
   1       0.1410000000      1.0000000000
  end;

 # Basis set for element : O 
 NewGTO O 
 S 8 
   1   11720.0000000000      0.0007096459
   2    1759.0000000000      0.0054672723
   3     400.8000000000      0.0278231186
   4     113.7000000000      0.1047477397
   5      37.0300000000      0.2829208464
   6      13.2700000000      0.4484952387
   7       5.0250000000      0.2708168852
   8       1.0130000000      0.0154502916
 S 8 
   1   11720.0000000000     -0.0003144434
   2    1759.0000000000     -0.0024821377
   3     400.8000000000     -0.0123163554
   4     113.7000000000     -0.0505389173
   5      37.0300000000     -0.1393849033
   6      13.2700000000     -0.3250774948
   7       5.0250000000     -0.2298483076
   8       1.0130000000      1.0953793468
 S 1 
   1       0.3023000000      1.0000000000
 S 1 
   1       0.0789600000      1.0000000000
 P 3 
   1      17.7000000000      0.0626791663
   2       3.8540000000      0.3335365659
   3       1.0460000000      0.7412396416
 P 1 
   1       0.2753000000      1.0000000000
 P 1 
   1       0.0685600000      1.0000000000
 D 1 
   1       1.1850000000      1.0000000000
 D 1 
   1       0.3320000000      1.0000000000
  end;

------------------------------------------------------------------------------
                           ORCA GTO INTEGRAL CALCULATION
------------------------------------------------------------------------------

                         BASIS SET STATISTICS AND STARTUP INFO

 # of primitive gaussian shells          ...   39
 # of primitive gaussian functions       ...   65
 # of contracted shells                  ...   19
 # of contracted basis functions         ...   41
 Highest angular momentum                ...    2
 Maximum contraction depth               ...    8
 Integral package used                   ... LIBINT
 Integral threshhold            Thresh   ...  1.000e-10
 Primitive cut-off              TCut     ...  1.000e-11


------------------------------ INTEGRAL EVALUATION ----------------------------


 * One electron integrals 
 Pre-screening matrix                    ... done
 Shell pair data                         ... done (   0.000 sec)

-------------------------------------------------------------------------------
                                 ORCA SCF
-------------------------------------------------------------------------------

------------
SCF SETTINGS
------------
Hamiltonian:
 Ab initio Hamiltonian  Method          .... Hartree-Fock(GTOs)


General Settings:
 Integral files         IntName         .... orca_bigbasis.input
 Hartree-Fock type      HFTyp           .... RHF
 Total Charge           Charge          ....    0
 Multiplicity           Mult            ....    1
 Number of Electrons    NEL             ....   10
 Basis Dimension        Dim             ....   41
 Nuclear Repulsion      ENuc            ....      8.0023669345 Eh

Convergence Acceleration:
 DIIS                   CNVDIIS         .... on
   Start iteration      DIISMaxIt       ....    12
   Startup error        DIISStart       ....  0.200000
   # of expansion vecs  DIISMaxEq       ....     5
   Bias factor          DIISBfac        ....   1.050
   Max. coefficient     DIISMaxC        ....  10.000
 Newton-Raphson         CNVNR           .... off
 SOSCF                  CNVSOSCF        .... on
   Start iteration      SOSCFMaxIt      ....   150
   Startup grad/error   SOSCFStart      ....  0.003300
 Level Shifting         CNVShift        .... on
   Level shift para.    LevelShift      ....    0.2500
   Turn off err/grad.   ShiftErr        ....    0.0010
 Zerner damping         CNVZerner       .... off
 Static damping         CNVDamp         .... on
   Fraction old density DampFac         ....    0.7000
   Max. Damping (<1)    DampMax         ....    0.9800
   Min. Damping (>=0)   DampMin         ....    0.0000
   Turn off err/grad.   DampErr         ....    0.1000
 Fernandez-Rico         CNVRico         .... off

SCF Procedure:
 Maximum # iterations   MaxIter         ....   125
 SCF integral mode      SCFMode         .... Direct
   Integral package                     .... LIBINT
 Reset frequeny         DirectResetFreq ....    20
 Integral Threshold     Thresh          ....  1.000e-10 Eh
 Primitive CutOff       TCut            ....  1.000e-11 Eh

Convergence Tolerance:
 Convergence Check Mode ConvCheckMode   .... Total+1el-Energy
 Convergence forced     ConvForced      .... 0
 Energy Change          TolE            ....  1.000e-06 Eh
 1-El. energy change                    ....  1.000e-03 Eh
 Orbital Gradient       TolG            ....  5.000e-05
 Orbital Rotation angle TolX            ....  5.000e-05
 DIIS Error             TolErr          ....  1.000e-06


Diagonalization of the overlap matrix:
Smallest eigenvalue                        ... 3.771e-03
Time for diagonalization                   ...    0.000 sec
Threshold for overlap eigenvalues          ... 1.000e-08
Number of eigenvalues below threshold      ... 0
Time for construction of square roots      ...    0.000 sec
Total time needed                          ...    0.000 sec

-------------------
DFT GRID GENERATION
-------------------

General Integration Accuracy     IntAcc      ...  4.340
Radial Grid Type                 RadialGrid  ... Gauss-Chebyshev
Angular Grid (max. acc.)         AngularGrid ... Lebedev-110
Angular grid pruning method      GridPruning ... 3 (G Style)
Weight generation scheme         WeightScheme... Becke
Basis function cutoff            BFCut       ...    1.0000e-10
Integration weight cutoff        WCut        ...    1.0000e-14
Grids for H and He will be reduced by one unit

# of grid points (after initial pruning)     ...   3304 (   0.0 sec)
# of grid points (after weights+screening)   ...   3262 (   0.0 sec)
nearest neighbour list constructed           ...    0.0 sec
Grid point re-assignment to atoms done       ...    0.0 sec
Grid point division into batches done        ...    0.0 sec
Reduced shell lists constructed in    0.0 sec

Total number of grid points                  ...     3262
Total number of batches                      ...       53
Average number of points per batch           ...       61
Average number of grid points per atom       ...     1087
Average number of shells per batch           ...    18.20 (95.81%)
Average number of basis functions per batch  ...    39.20 (95.62%)
Average number of large shells per batch     ...    17.81 (97.86%)
Average number of large basis fcns per batch ...    38.41 (97.97%)
Maximum spatial batch extension              ...  14.35, 20.95, 25.65 au
Average spatial batch extension              ...   4.85,  5.76,  5.94 au

Time for grid setup =    0.016 sec

------------------------------
INITIAL GUESS: MODEL POTENTIAL
------------------------------
Loading Hartree-Fock densities                     ... done
Calculating cut-offs                               ... done
Setting up the integral package                    ... done
Initializing the effective Hamiltonian             ... done
Starting the Coulomb interaction                   ... done (   0.0 sec)
Reading the grid                                   ... done
Mapping shells                                     ... done
Starting the XC term evaluation                    ... done (   0.0 sec)
Transforming the Hamiltonian                       ... done (   0.0 sec)
Diagonalizing the Hamiltonian                      ... done (   0.0 sec)
Back transforming the eigenvectors                 ... done (   0.0 sec)
Now organizing SCF variables                       ... done
                      ------------------
                      INITIAL GUESS DONE (   0.2 sec)
                      ------------------
--------------
SCF ITERATIONS
--------------
ITER       Energy         Delta-E        Max-DP      RMS-DP      [F,P]     Damp
               ***  Starting incremental Fock matrix formation  ***
  0    -75.9190243310   0.000000000000 0.06297095  0.00311191  0.2952427 0.7000
  1    -75.9534513952  -0.034427064249 0.04363966  0.00207164  0.1716314 0.7000
                               ***Turning on DIIS***
  2    -75.9706109651  -0.017159569873 0.08282993  0.00366575  0.0894962 0.0000
  3    -75.7888361244   0.181774840704 0.03312049  0.00154189  0.0722024 0.0000
  4    -75.9819729651  -0.193136840677 0.00660222  0.00031189  0.0108114 0.0000
  5    -75.9992768989  -0.017303933864 0.00342377  0.00018391  0.0045104 0.0000
                      *** Initiating the SOSCF procedure ***
                           *** Shutting down DIIS ***
                      *** Re-Reading the Fockian *** 
                      *** Removing any level shift *** 
ITER      Energy       Delta-E        Grad      Rot      Max-DP    RMS-DP
  6    -76.00233571  -0.0030588151  0.001176  0.001176  0.001662  0.000098
               *** Restarting incremental Fock matrix formation ***
  7    -76.00335285  -0.0010171330  0.000332  0.000472  0.000494  0.000031
                 **** Energy Check signals convergence ****
              ***Rediagonalizing the Fockian in SOSCF/NRSCF***

               *****************************************************
               *                     SUCCESS                       *
               *           SCF CONVERGED AFTER   8 CYCLES          *
               *****************************************************


----------------
TOTAL SCF ENERGY
----------------

Total Energy       :          -76.00335380 Eh           -2068.15640 eV

Components:
Nuclear Repulsion  :            8.00236693 Eh             217.75547 eV
Electronic Energy  :          -84.00572073 Eh           -2285.91187 eV
One Electron Energy:         -120.80800294 Eh           -3287.35289 eV
Two Electron Energy:           36.80228221 Eh            1001.44101 eV

Virial components:
Potential Energy   :         -151.48677248 Eh           -4122.16465 eV
Kinetic Energy     :           75.48341869 Eh            2054.00825 eV
Virial Ratio       :            2.00688807


---------------
SCF CONVERGENCE
---------------

  Last Energy change         ...   -9.4968e-07  Tolerance :   1.0000e-06
  Last MAX-Density change    ...    3.7276e-04  Tolerance :   1.0000e-05
  Last RMS-Density change    ...    2.4962e-05  Tolerance :   1.0000e-06
  Last Orbital Gradient      ...    1.2695e-04  Tolerance :   5.0000e-05
  Last Orbital Rotation      ...    3.4221e-04  Tolerance :   5.0000e-05

             **** THE GBW FILE WAS UPDATED (orca_bigbasis.input.gbw) ****
             **** DENSITY FILE WAS UPDATED (orca_bigbasis.input.scfp.tmp) ****
             **** ENERGY FILE WAS UPDATED (orca_bigbasis.input.en.tmp) ****
----------------
ORBITAL ENERGIES
----------------

  NO   OCC          E(Eh)            E(eV) 
   0   2.0000     -20.599194      -560.5326 
   1   2.0000      -1.295387       -35.2493 
   2   2.0000      -0.647596       -17.6220 
   3   2.0000      -0.559039       -15.2122 
   4   2.0000      -0.500201       -13.6112 
   5   0.0000       0.032080         0.8729 
   6   0.0000       0.056893         1.5481 
   7   0.0000       0.174742         4.7550 
   8   0.0000       0.203107         5.5268 
   9   0.0000       0.207633         5.6500 
  10   0.0000       0.233353         6.3498 
  11   0.0000       0.251119         6.8333 
  12   0.0000       0.317730         8.6459 
  13   0.0000       0.375202        10.2098 
  14   0.0000       0.383364        10.4319 
  15   0.0000       0.413025        11.2390 
  16   0.0000       0.518181        14.1004 
  17   0.0000       0.604794        16.4573 
  18   0.0000       0.627218        17.0675 
  19   0.0000       0.782511        21.2932 
  20   0.0000       0.900340        24.4995 
  21   0.0000       1.113170        30.2909 
  22   0.0000       1.121152        30.5081 
  23   0.0000       1.136101        30.9149 
  24   0.0000       1.251925        34.0666 
  25   0.0000       1.422437        38.7065 
  26   0.0000       1.439188        39.1623 
  27   0.0000       1.559499        42.4361 
  28   0.0000       1.905438        51.8496 
  29   0.0000       1.939365        52.7728 
  30   0.0000       2.029116        55.2150 
  31   0.0000       2.207417        60.0669 
  32   0.0000       2.274615        61.8954 
  33   0.0000       2.326629        63.3108 
  34   0.0000       2.678188        72.8772 
  35   0.0000       2.948871        80.2429 
  36   0.0000       3.666375        99.7671 
  37   0.0000       3.678644       100.1010 
  38   0.0000       3.679478       100.1237 
  39   0.0000       3.864508       105.1586 
  40   0.0000       4.038258       109.8866 
------------------
MOLECULAR ORBITALS
------------------
                      0         1         2         3         4         5   
                 -20.59919  -1.29539  -0.64760  -0.55904  -0.50020   0.03208
                   2.00000   2.00000   2.00000   2.00000   2.00000   0.00000
                  --------  --------  --------  --------  --------  --------
  0O   1s        -1.001330 -0.004624 -0.000000  0.002921  0.000000  0.000062
  0O   2s        -0.001713  0.459190 -0.000000  0.140814  0.000000 -0.066429
  0O   3s         0.007453  0.471038  0.000000  0.253184  0.000000 -0.175249
  0O   4s         0.004314  0.077742  0.000000  0.062657 -0.000000 -1.328198
  0O   1pz        0.000000 -0.000000  0.000000  0.000000 -0.633266 -0.000000
  0O   1px       -0.000000  0.000000 -0.484423 -0.000000 -0.000000 -0.000000
  0O   1py       -0.001435  0.052708  0.000000 -0.534647 -0.000000 -0.093768
  0O   2pz        0.000000  0.000000  0.000000  0.000000 -0.454130 -0.000000
  0O   2px        0.000000 -0.000000 -0.260501 -0.000000 -0.000000 -0.000000
  0O   2py        0.002097  0.012163  0.000000 -0.345353 -0.000000 -0.157432
  0O   3pz        0.000000 -0.000000  0.000000  0.000000 -0.070822 -0.000000
  0O   3px        0.000000 -0.000000 -0.030319 -0.000000 -0.000000 -0.000000
  0O   3py        0.000801  0.014148  0.000000 -0.043088 -0.000000 -0.230749
  0O   1dz2      -0.000077 -0.005326 -0.000000  0.010304  0.000000 -0.000508
  0O   1dxz       0.000000 -0.000000  0.000000 -0.000000 -0.000000  0.000000
  0O   1dyz       0.000000 -0.000000 -0.000000  0.000000 -0.011263 -0.000000
  0O   1dx2y2     0.000016  0.001153  0.000000  0.007423  0.000000  0.002987
  0O   1dxy      -0.000000 -0.000000 -0.023876 -0.000000 -0.000000  0.000000
  0O   2dz2      -0.000419  0.008808 -0.000000  0.003060  0.000000  0.011464
  0O   2dxz      -0.000000  0.000000  0.000000 -0.000000  0.000000 -0.000000
  0O   2dyz       0.000000 -0.000000 -0.000000  0.000000 -0.019896 -0.000000
  0O   2dx2y2     0.000155 -0.002973  0.000000  0.020566  0.000000 -0.004446
  0O   2dxy       0.000000 -0.000000  0.012458 -0.000000 -0.000000 -0.000000
  1H   1s        -0.000746  0.145522 -0.305644 -0.207501 -0.000000  0.038287
  1H   2s        -0.003484 -0.031620 -0.073433 -0.077058  0.000000  0.400807
  1H   3s        -0.000279 -0.003578  0.008310 -0.002771  0.000000  0.790403
  1H   1pz       -0.000000  0.000000  0.000000  0.000000 -0.019982 -0.000000
  1H   1px        0.000051 -0.026016  0.024734  0.026667  0.000000  0.007470
  1H   1py       -0.000032 -0.017279  0.030714  0.004368  0.000000  0.003514
  1H   2pz       -0.000000 -0.000000 -0.000000  0.000000 -0.016828  0.000000
  1H   2px        0.001228  0.009354 -0.009087  0.001231 -0.000000 -0.068115
  1H   2py        0.001011  0.009041 -0.004771 -0.013753 -0.000000 -0.062410
  2H   1s        -0.000746  0.145522  0.305644 -0.207501 -0.000000  0.038287
  2H   2s        -0.003484 -0.031620  0.073433 -0.077058 -0.000000  0.400807
  2H   3s        -0.000279 -0.003578 -0.008310 -0.002771 -0.000000  0.790403
  2H   1pz        0.000000 -0.000000  0.000000  0.000000 -0.019982  0.000000
  2H   1px       -0.000051  0.026016  0.024734 -0.026667 -0.000000 -0.007470
  2H   1py       -0.000032 -0.017279 -0.030714  0.004368  0.000000  0.003514
  2H   2pz       -0.000000  0.000000  0.000000  0.000000 -0.016828  0.000000
  2H   2px       -0.001228 -0.009354 -0.009087 -0.001231 -0.000000  0.068115
  2H   2py        0.001011  0.009041  0.004771 -0.013753 -0.000000 -0.062410
                      6         7         8         9        10        11   
                   0.05689   0.17474   0.20311   0.20763   0.23335   0.25112
                   0.00000   0.00000   0.00000   0.00000   0.00000   0.00000
                  --------  --------  --------  --------  --------  --------
  0O   1s        -0.000000  0.027737  0.000000 -0.000395  0.000000 -0.000000
  0O   2s        -0.000000  0.109483  0.000000 -0.138863  0.000000 -0.000000
  0O   3s         0.000000 -0.204520  0.000000 -0.310587 -0.000000  0.000000
  0O   4s         0.000000 -3.885343 -0.000000  0.717277 -0.000000  0.000000
  0O   1pz        0.000000 -0.000000 -0.180294 -0.000000  0.000000 -0.000000
  0O   1px        0.087812  0.000000  0.000000 -0.000000  0.276632  0.166471
  0O   1py       -0.000000  0.232770  0.000000 -0.063363 -0.000000  0.000000
  0O   2pz        0.000000 -0.000000 -0.307879 -0.000000  0.000000 -0.000000
  0O   2px        0.139218 -0.000000 -0.000000  0.000000 -0.048154  0.308707
  0O   2py        0.000000  0.047929 -0.000000  0.076166 -0.000000  0.000000
  0O   3pz       -0.000000  0.000000  1.370308  0.000000 -0.000000  0.000000
  0O   3px        0.742445 -0.000000 -0.000000  0.000000 -2.382128  1.880233
  0O   3py        0.000000 -1.703628  0.000000 -1.057354  0.000000  0.000000
  0O   1dz2       0.000000 -0.009206  0.000000 -0.007958 -0.000000  0.000000
  0O   1dxz      -0.000000  0.000000  0.000000 -0.000000 -0.000000  0.000000
  0O   1dyz      -0.000000  0.000000 -0.013340 -0.000000  0.000000 -0.000000
  0O   1dx2y2     0.000000 -0.005963  0.000000 -0.001734  0.000000 -0.000000
  0O   1dxy      -0.001269  0.000000  0.000000  0.000000  0.007623 -0.020842
  0O   2dz2      -0.000000  0.068535 -0.000000  0.007743  0.000000 -0.000000
  0O   2dxz      -0.000000  0.000000 -0.000000  0.000000 -0.000000 -0.000000
  0O   2dyz       0.000000 -0.000000  0.046110  0.000000 -0.000000  0.000000
  0O   2dx2y2     0.000000 -0.008670 -0.000000  0.037020 -0.000000  0.000000
  0O   2dxy       0.023465 -0.000000 -0.000000  0.000000 -0.099144  0.089332
  1H   1s        -0.007645 -0.052020 -0.000000  0.102653 -0.022495 -0.165517
  1H   2s        -0.388189  1.468880 -0.000000  0.594543  1.526733 -1.700402
  1H   3s        -2.537587  0.710616  0.000000 -0.466896  2.234552 -0.462151
  1H   1pz       -0.000000  0.000000  0.011540  0.000000  0.000000  0.000000
  1H   1px       -0.002223 -0.027018 -0.000000  0.006730 -0.035459  0.024677
  1H   1py       -0.005736 -0.021461  0.000000 -0.001683 -0.022303  0.004564
  1H   2pz        0.000000  0.000000 -0.215035 -0.000000  0.000000 -0.000000
  1H   2px        0.080978 -0.447393 -0.000000  0.260636 -0.599861 -0.118335
  1H   2py        0.103765 -0.274671 -0.000000  0.281496 -0.590376 -0.127369
  2H   1s         0.007645 -0.052020 -0.000000  0.102653  0.022495  0.165517
  2H   2s         0.388189  1.468880 -0.000000  0.594543 -1.526733  1.700402
  2H   3s         2.537587  0.710616  0.000000 -0.466896 -2.234552  0.462151
  2H   1pz       -0.000000  0.000000  0.011540  0.000000 -0.000000  0.000000
  2H   1px       -0.002223  0.027018  0.000000 -0.006730 -0.035459  0.024677
  2H   1py        0.005736 -0.021461  0.000000 -0.001683  0.022303 -0.004564
  2H   2pz       -0.000000 -0.000000 -0.215035 -0.000000  0.000000 -0.000000
  2H   2px        0.080978  0.447393  0.000000 -0.260636 -0.599861 -0.118335
  2H   2py       -0.103765 -0.274671 -0.000000  0.281496  0.590376  0.127369
                     12        13        14        15        16        17   
                   0.31773   0.37520   0.38336   0.41303   0.51818   0.60479
                   0.00000   0.00000   0.00000   0.00000   0.00000   0.00000
                  --------  --------  --------  --------  --------  --------
  0O   1s         0.011840 -0.000000  0.001011 -0.000000  0.000000  0.077256
  0O   2s         0.039986 -0.000000 -0.025288  0.000000 -0.000000 -0.055158
  0O   3s        -0.067556 -0.000000 -0.141379  0.000000 -0.000000 -2.130949
  0O   4s        -4.461448  0.000000  4.247580 -0.000000 -0.000000 -4.531461
  0O   1pz       -0.000000 -0.000000  0.000000  0.130917 -0.000000 -0.000000
  0O   1px       -0.000000  0.000000  0.000000 -0.000000  0.067659 -0.000000
  0O   1py       -0.077884  0.000000  0.169513 -0.000000 -0.000000 -0.233507
  0O   2pz       -0.000000 -0.000000  0.000000  0.493396  0.000000  0.000000
  0O   2px       -0.000000  0.000000  0.000000  0.000000  0.131987 -0.000000
  0O   2py       -0.308485  0.000000  0.656361 -0.000000 -0.000000 -0.662842
  0O   3pz       -0.000000 -0.000000  0.000000  1.119748  0.000000  0.000000
  0O   3px        0.000000  0.000000  0.000000 -0.000000  1.848256 -0.000000
  0O   3py       -0.584073  0.000000  1.801444 -0.000000  0.000000 -0.530379
  0O   1dz2      -0.011336  0.000000  0.007718 -0.000000  0.000000  0.000422
  0O   1dxz       0.000000  0.033916 -0.000000  0.000000  0.000000  0.000000
  0O   1dyz       0.000000  0.000000 -0.000000 -0.023623 -0.000000 -0.000000
  0O   1dx2y2     0.031696  0.000000  0.021028 -0.000000  0.000000  0.008668
  0O   1dxy      -0.000000  0.000000  0.000000 -0.000000  0.012998  0.000000
  0O   2dz2       0.056625 -0.000000 -0.041006  0.000000  0.000000 -0.057432
  0O   2dxz      -0.000000 -0.101027  0.000000 -0.000000 -0.000000  0.000000
  0O   2dyz      -0.000000 -0.000000  0.000000  0.064515 -0.000000  0.000000
  0O   2dx2y2    -0.109914 -0.000000 -0.075429  0.000000 -0.000000  0.021429
  0O   2dxy      -0.000000 -0.000000  0.000000  0.000000 -0.032254 -0.000000
  1H   1s         0.105410 -0.000000 -0.053058  0.000000  0.024696  0.240022
  1H   2s         2.195258 -0.000000 -2.206066  0.000000  0.274825  2.459569
  1H   3s         0.337349 -0.000000 -0.286652  0.000000 -0.541315  0.508870
  1H   1pz       -0.000000 -0.005784  0.000000  0.009442  0.000000 -0.000000
  1H   1px       -0.016640  0.000000  0.029723 -0.000000  0.022549  0.030176
  1H   1py       -0.023400  0.000000  0.009970  0.000000 -0.025779  0.014124
  1H   2pz        0.000000  1.023313 -0.000000 -1.130144 -0.000000 -0.000000
  1H   2px        0.157996  0.000000  0.455187 -0.000000 -1.669675 -1.263199
  1H   2py       -0.564558 -0.000000 -0.572184  0.000000  1.025477 -1.075567
  2H   1s         0.105410 -0.000000 -0.053058  0.000000 -0.024696  0.240022
  2H   2s         2.195258 -0.000000 -2.206066  0.000000 -0.274825  2.459569
  2H   3s         0.337349 -0.000000 -0.286652  0.000000  0.541315  0.508870
  2H   1pz       -0.000000  0.005784 -0.000000  0.009442 -0.000000  0.000000
  2H   1px        0.016640 -0.000000 -0.029723  0.000000  0.022549 -0.030176
  2H   1py       -0.023400  0.000000  0.009970 -0.000000  0.025779  0.014124
  2H   2pz        0.000000 -1.023313  0.000000 -1.130144 -0.000000 -0.000000
  2H   2px       -0.157996 -0.000000 -0.455187  0.000000 -1.669675  1.263199
  2H   2py       -0.564558 -0.000000 -0.572184  0.000000 -1.025477 -1.075567
                     18        19        20        21        22        23   
                   0.62722   0.78251   0.90034   1.11317   1.12115   1.13610
                   0.00000   0.00000   0.00000   0.00000   0.00000   0.00000
                  --------  --------  --------  --------  --------  --------
  0O   1s        -0.000000 -0.000000 -0.117321 -0.000000 -0.005066  0.000000
  0O   2s         0.000000 -0.000000 -0.210875  0.000000  0.015103 -0.000000
  0O   3s         0.000000  0.000000  1.425825  0.000000  0.357666 -0.000000
  0O   4s         0.000000  0.000000  5.495280  0.000000  0.196372 -0.000000
  0O   1pz       -0.000000  0.000000  0.000000 -0.153485  0.000000  0.000000
  0O   1px       -0.340685 -0.131254 -0.000000 -0.000000 -0.000000 -0.000000
  0O   1py        0.000000 -0.000000 -0.072982 -0.000000 -0.111992  0.000000
  0O   2pz        0.000000 -0.000000 -0.000000 -0.011712  0.000000 -0.000000
  0O   2px       -1.441286  1.072535 -0.000000  0.000000 -0.000000  0.000000
  0O   2py        0.000000  0.000000  0.471012  0.000000  0.067153 -0.000000
  0O   3pz       -0.000000  0.000000  0.000000 -0.679617  0.000000  0.000000
  0O   3px       -1.519991  1.956717 -0.000000  0.000000 -0.000000 -0.000000
  0O   3py        0.000000  0.000000  1.440769 -0.000000 -0.581219  0.000000
  0O   1dz2       0.000000 -0.000000 -0.024516 -0.000000 -0.021615  0.000000
  0O   1dxz       0.000000  0.000000  0.000000  0.000000  0.000000  0.019873
  0O   1dyz       0.000000 -0.000000  0.000000  0.023016 -0.000000 -0.000000
  0O   1dx2y2    -0.000000  0.000000  0.012474 -0.000000 -0.008588  0.000000
  0O   1dxy       0.006402  0.036038 -0.000000 -0.000000 -0.000000  0.000000
  0O   2dz2       0.000000 -0.000000 -0.582812  0.000000  0.584287 -0.000000
  0O   2dxz       0.000000  0.000000  0.000000 -0.000000 -0.000000 -1.180165
  0O   2dyz       0.000000 -0.000000  0.000000 -1.127511  0.000000  0.000000
  0O   2dx2y2    -0.000000  0.000000  0.260325  0.000000  0.960843 -0.000000
  0O   2dxy       0.022040  0.724543 -0.000000  0.000000  0.000000  0.000000
  1H   1s         0.275513  0.454153  0.636713  0.000000  0.125884 -0.000000
  1H   2s         4.495909 -4.855556 -3.861952 -0.000000 -0.215242  0.000000
  1H   3s         1.078359 -0.541887 -0.231244 -0.000000 -0.013770  0.000000
  1H   1pz       -0.000000 -0.000000  0.000000 -0.030153  0.000000 -0.068046
  1H   1px        0.012414  0.134626  0.171528  0.000000  0.083515 -0.000000
  1H   1py        0.009061  0.159506  0.075379 -0.000000 -0.038714  0.000000
  1H   2pz       -0.000000  0.000000 -0.000000  0.560816 -0.000000  0.627097
  1H   2px       -2.224931  1.449736  0.532586 -0.000000 -0.108733  0.000000
  1H   2py       -1.398446  0.623779  0.577105  0.000000  0.578054 -0.000000
  2H   1s        -0.275513 -0.454153  0.636713  0.000000  0.125884 -0.000000
  2H   2s        -4.495909  4.855556 -3.861952 -0.000000 -0.215242  0.000000
  2H   3s        -1.078359  0.541887 -0.231244 -0.000000 -0.013770  0.000000
  2H   1pz       -0.000000  0.000000 -0.000000 -0.030153  0.000000  0.068046
  2H   1px        0.012414  0.134626 -0.171528 -0.000000 -0.083515  0.000000
  2H   1py       -0.009061 -0.159506  0.075379 -0.000000 -0.038714  0.000000
  2H   2pz       -0.000000  0.000000  0.000000  0.560816 -0.000000 -0.627097
  2H   2px       -2.224931  1.449736 -0.532586  0.000000  0.108733 -0.000000
  2H   2py        1.398446 -0.623779  0.577105  0.000000  0.578054 -0.000000
                     24        25        26        27        28        29   
                   1.25193   1.42244   1.43919   1.55950   1.90544   1.93936
                   0.00000   0.00000   0.00000   0.00000   0.00000   0.00000
                  --------  --------  --------  --------  --------  --------
  0O   1s        -0.101940  0.000000 -0.000000 -0.184402 -0.000000 -0.000000
  0O   2s        -0.208314  0.000000 -0.000000 -0.520591 -0.000000 -0.000000
  0O   3s         1.036633 -0.000000  0.000000  0.184080  0.000000 -0.000000
  0O   4s         2.050491 -0.000000  0.000000 -2.398925 -0.000000 -0.000000
  0O   1pz        0.000000  0.000000 -0.972462  0.000000  0.000000 -0.000000
  0O   1px       -0.000000 -0.598531 -0.000000 -0.000000 -0.212538  0.000000
  0O   1py       -0.432958 -0.000000 -0.000000  0.791736  0.000000  0.000000
  0O   2pz       -0.000000 -0.000000  1.431390 -0.000000 -0.000000  0.000000
  0O   2px        0.000000  1.540168  0.000000  0.000000  0.607217 -0.000000
  0O   2py        0.738197  0.000000  0.000000 -1.683664 -0.000000 -0.000000
  0O   3pz       -0.000000  0.000000 -0.017560  0.000000  0.000000 -0.000000
  0O   3px       -0.000000  0.621554  0.000000  0.000000  0.910622 -0.000000
  0O   3py        0.531505 -0.000000  0.000000 -0.312482 -0.000000 -0.000000
  0O   1dz2      -0.056184  0.000000 -0.000000 -0.017302  0.000000  0.000000
  0O   1dxz      -0.000000 -0.000000 -0.000000  0.000000  0.000000  0.076939
  0O   1dyz      -0.000000 -0.000000  0.002892  0.000000 -0.000000 -0.000000
  0O   1dx2y2     0.027758 -0.000000  0.000000  0.017612 -0.000000  0.000000
  0O   1dxy       0.000000  0.068458  0.000000  0.000000 -0.042876  0.000000
  0O   2dz2       0.673262 -0.000000  0.000000  0.597538 -0.000000  0.000000
  0O   2dxz       0.000000  0.000000 -0.000000  0.000000 -0.000000 -0.708644
  0O   2dyz      -0.000000 -0.000000  0.261252  0.000000 -0.000000  0.000000
  0O   2dx2y2    -0.648677  0.000000 -0.000000 -0.228561  0.000000 -0.000000
  0O   2dxy      -0.000000 -0.798644 -0.000000 -0.000000  0.534781 -0.000000
  1H   1s         0.654926  0.547379  0.000000  0.627613 -0.330752  0.000000
  1H   2s        -1.746678 -2.875633 -0.000000  0.983148 -0.666098  0.000000
  1H   3s        -0.056042 -0.036914 -0.000000  0.213554 -0.343341  0.000000
  1H   1pz       -0.000000 -0.000000  0.078175 -0.000000  0.000000  0.887076
  1H   1px        0.159591  0.215218  0.000000 -0.007691  0.528634 -0.000000
  1H   1py        0.146821  0.187451  0.000000 -0.144181 -0.612321  0.000000
  1H   2pz        0.000000  0.000000 -0.435544 -0.000000 -0.000000 -0.178937
  1H   2px        0.568365  0.878167  0.000000 -0.214667 -0.320811  0.000000
  1H   2py        0.093049  0.795387  0.000000  0.046874  0.629260 -0.000000
  2H   1s         0.654926 -0.547379  0.000000  0.627613  0.330752 -0.000000
  2H   2s        -1.746678  2.875633 -0.000000  0.983148  0.666098  0.000000
  2H   3s        -0.056042  0.036914 -0.000000  0.213554  0.343341  0.000000
  2H   1pz       -0.000000  0.000000  0.078175  0.000000  0.000000 -0.887076
  2H   1px       -0.159591  0.215218 -0.000000  0.007691  0.528634 -0.000000
  2H   1py        0.146821 -0.187451  0.000000 -0.144181  0.612321 -0.000000
  2H   2pz        0.000000  0.000000 -0.435544 -0.000000  0.000000  0.178937
  2H   2px       -0.568365  0.878167 -0.000000  0.214667 -0.320811  0.000000
  2H   2py        0.093049 -0.795387  0.000000  0.046874 -0.629260 -0.000000
                     30        31        32        33        34        35   
                   2.02912   2.20742   2.27462   2.32663   2.67819   2.94887
                   0.00000   0.00000   0.00000   0.00000   0.00000   0.00000
                  --------  --------  --------  --------  --------  --------
  0O   1s         0.000000 -0.000000 -0.212704  0.466423  0.000000  0.955657
  0O   2s         0.000000 -0.000000 -0.449130  1.149682  0.000000  1.852430
  0O   3s        -0.000000  0.000000  1.055915 -1.284645 -0.000000 -5.245552
  0O   4s         0.000000 -0.000000  0.659863 -0.791844 -0.000000 -3.869899
  0O   1pz       -0.128089 -0.000000 -0.000000  0.000000  0.000000  0.000000
  0O   1px        0.000000 -0.870736  0.000000 -0.000000  0.281730 -0.000000
  0O   1py        0.000000  0.000000  0.133872  0.495040 -0.000000  0.045483
  0O   2pz        0.623188  0.000000  0.000000 -0.000000 -0.000000 -0.000000
  0O   2px       -0.000000  1.322018 -0.000000 -0.000000 -3.970486  0.000000
  0O   2py        0.000000 -0.000000 -0.423401 -0.150361 -0.000000 -2.282294
  0O   3pz       -0.243336 -0.000000 -0.000000  0.000000 -0.000000  0.000000
  0O   3px        0.000000  0.234050 -0.000000 -0.000000 -1.092787  0.000000
  0O   3py        0.000000 -0.000000  0.180596 -0.003200 -0.000000 -0.780228
  0O   1dz2      -0.000000  0.000000  0.007437  0.051913 -0.000000 -0.278471
  0O   1dxz      -0.000000  0.000000 -0.000000  0.000000  0.000000  0.000000
  0O   1dyz      -0.063002 -0.000000 -0.000000  0.000000  0.000000 -0.000000
  0O   1dx2y2     0.000000 -0.000000 -0.076614 -0.043248  0.000000  0.097259
  0O   1dxy       0.000000  0.039972 -0.000000  0.000000  0.295859 -0.000000
  0O   2dz2      -0.000000 -0.000000 -0.007655 -0.183612  0.000000  0.961457
  0O   2dxz       0.000000  0.000000 -0.000000  0.000000  0.000000 -0.000000
  0O   2dyz       0.553617  0.000000  0.000000 -0.000000 -0.000000  0.000000
  0O   2dx2y2    -0.000000  0.000000  1.145172  0.076300  0.000000 -0.171447
  0O   2dxy      -0.000000  0.284782  0.000000 -0.000000 -2.139828  0.000000
  1H   1s         0.000000 -0.350347 -0.014989 -0.200028  2.049124  1.328943
  1H   2s        -0.000000 -1.357742 -0.593521  0.544428  3.625226  2.878062
  1H   3s        -0.000000 -0.285763 -0.033387  0.120942  0.357882  0.202433
  1H   1pz       -0.912074 -0.000000 -0.000000  0.000000 -0.000000  0.000000
  1H   1px        0.000000 -0.578994 -0.559174  0.573851 -0.567344 -0.856741
  1H   1py       -0.000000 -0.247303  0.867485  0.480887 -0.731321 -0.345840
  1H   2pz        0.184224  0.000000  0.000000 -0.000000  0.000000 -0.000000
  1H   2px       -0.000000  0.840582  0.200892 -0.484025 -1.223213 -0.703252
  1H   2py        0.000000  0.471658  0.164951 -0.425416 -0.688192 -0.597888
  2H   1s        -0.000000  0.350347 -0.014989 -0.200028 -2.049124  1.328943
  2H   2s         0.000000  1.357742 -0.593521  0.544428 -3.625226  2.878062
  2H   3s         0.000000  0.285763 -0.033387  0.120942 -0.357882  0.202433
  2H   1pz       -0.912074 -0.000000 -0.000000  0.000000  0.000000  0.000000
  2H   1px        0.000000 -0.578994  0.559174 -0.573851 -0.567344  0.856741
  2H   1py        0.000000  0.247303  0.867485  0.480887  0.731321 -0.345840
  2H   2pz        0.184224  0.000000  0.000000 -0.000000 -0.000000 -0.000000
  2H   2px        0.000000  0.840582 -0.200892  0.484025 -1.223213  0.703252
  2H   2py       -0.000000 -0.471658  0.164951 -0.425416  0.688192 -0.597888
                     36        37        38        39        40   
                   3.66638   3.67864   3.67948   3.86451   4.03826
                   0.00000   0.00000   0.00000   0.00000   0.00000
                  --------  --------  --------  --------  --------
  0O   1s        -0.000000  0.000000 -0.063765  0.299196  0.000000
  0O   2s        -0.000000  0.000000 -0.122832  0.526775  0.000000
  0O   3s         0.000000 -0.000000  0.382672 -1.946084 -0.000000
  0O   4s        -0.000000  0.000000 -0.075418 -0.515132 -0.000000
  0O   1pz       -0.029791  0.000000  0.000000  0.000000 -0.000000
  0O   1px        0.000000 -0.000000  0.000000  0.000000  0.108263
  0O   1py        0.000000 -0.000000  0.028281 -0.100409  0.000000
  0O   2pz        0.147177 -0.000000 -0.000000 -0.000000  0.000000
  0O   2px       -0.000000  0.000000  0.000000  0.000000  1.412923
  0O   2py       -0.000000  0.000000 -0.035291 -0.891368 -0.000000
  0O   3pz        0.261092 -0.000000 -0.000000 -0.000000  0.000000
  0O   3px       -0.000000  0.000000  0.000000  0.000000  0.130412
  0O   3py       -0.000000  0.000000 -0.270699 -0.095358 -0.000000
  0O   1dz2      -0.000000  0.000000 -0.588525  1.028752 -0.000000
  0O   1dxz       0.000000  1.196532  0.000000 -0.000000  0.000000
  0O   1dyz      -1.189637  0.000000  0.000000  0.000000  0.000000
  0O   1dx2y2    -0.000000  0.000000 -1.045572 -0.612310  0.000000
  0O   1dxy       0.000000 -0.000000  0.000000  0.000000  1.258329
  0O   2dz2       0.000000 -0.000000  0.289406 -0.198651  0.000000
  0O   2dxz      -0.000000 -0.722269 -0.000000  0.000000  0.000000
  0O   2dyz       0.693396 -0.000000 -0.000000 -0.000000 -0.000000
  0O   2dx2y2     0.000000 -0.000000  0.707492  0.325807 -0.000000
  0O   2dxy      -0.000000  0.000000  0.000000  0.000000  0.011732
  1H   1s        -0.000000  0.000000 -0.066818  0.614525 -0.749439
  1H   2s         0.000000 -0.000000 -0.000021  0.556290 -0.958797
  1H   3s         0.000000 -0.000000  0.001613  0.004842  0.041689
  1H   1pz        0.044833 -0.050394 -0.000000 -0.000000  0.000000
  1H   1px        0.000000 -0.000000  0.045323 -0.521488  0.527630
  1H   1py        0.000000 -0.000000  0.026488 -0.312539  0.450194
  1H   2pz       -0.257314  0.257238  0.000000  0.000000  0.000000
  1H   2px       -0.000000  0.000000 -0.065336 -0.228368  0.277462
  1H   2py        0.000000 -0.000000  0.252318 -0.056643  0.268752
  2H   1s        -0.000000  0.000000 -0.066818  0.614525  0.749439
  2H   2s        -0.000000 -0.000000 -0.000021  0.556290  0.958797
  2H   3s        -0.000000 -0.000000  0.001613  0.004842 -0.041689
  2H   1pz        0.044833  0.050394  0.000000 -0.000000 -0.000000
  2H   1px       -0.000000  0.000000 -0.045323  0.521488  0.527630
  2H   1py        0.000000 -0.000000  0.026488 -0.312539 -0.450194
  2H   2pz       -0.257314 -0.257238 -0.000000  0.000000  0.000000
  2H   2px        0.000000 -0.000000  0.065336  0.228368  0.277462
  2H   2py        0.000000 -0.000000  0.252318 -0.056643 -0.268752



                    ********************************
                    * MULLIKEN POPULATION ANALYSIS *
                    ********************************

-----------------------
MULLIKEN ATOMIC CHARGES
-----------------------
   0 O :   -0.568953
   1 H :    0.284476
   2 H :    0.284476
Sum of atomic charges:   -0.0000000

--------------------------------
MULLIKEN REDUCED ORBITAL CHARGES
--------------------------------
  0 O s       :     3.902529  s :     3.902529
      pz      :     1.944856  p :     4.662963
      px      :     1.219941
      py      :     1.498166
      dz2     :     0.001257  d :     0.003461
      dxz     :     0.000000
      dyz     :     0.002478
      dx2y2   :    -0.000098
      dxy     :    -0.000175
  1 H s       :     0.640086  s :     0.640086
      pz      :     0.026333  p :     0.075438
      px      :     0.025355
      py      :     0.023750
  2 H s       :     0.640086  s :     0.640086
      pz      :     0.026333  p :     0.075438
      px      :     0.025355
      py      :     0.023750


                     *******************************
                     * LOEWDIN POPULATION ANALYSIS *
                     *******************************

----------------------
LOEWDIN ATOMIC CHARGES
----------------------
   0 O :   -0.034423
   1 H :    0.017212
   2 H :    0.017212

-------------------------------
LOEWDIN REDUCED ORBITAL CHARGES
-------------------------------
  0 O s       :     3.408302  s :     3.408302
      pz      :     1.801812  p :     4.573002
      px      :     1.276515
      py      :     1.494674
      dz2     :     0.010407  d :     0.053120
      dxz     :     0.000000
      dyz     :     0.000566
      dx2y2   :     0.001205
      dxy     :     0.040941
  1 H s       :     0.607219  s :     0.607219
      pz      :     0.098811  p :     0.375569
      px      :     0.142167
      py      :     0.134592
  2 H s       :     0.607219  s :     0.607219
      pz      :     0.098811  p :     0.375569
      px      :     0.142167
      py      :     0.134592


                      *****************************
                      * MAYER POPULATION ANALYSIS *
                      *****************************

  NA   - Mulliken gross atomic population
  ZA   - Total nuclear charge
  QA   - Mulliken gross atomic charge
  VA   - Mayer's total valence
  BVA  - Mayer's bonded valence
  FA   - Mayer's free valence

  ATOM       NA         ZA         QA         VA         BVA        FA
  0 O      8.5690     8.0000    -0.5690     1.8310     1.8310     0.0000
  1 H      0.7155     1.0000     0.2845     0.9302     0.9302    -0.0000
  2 H      0.7155     1.0000     0.2845     0.9302     0.9302     0.0000

  Mayer bond orders larger than 0.1
B(  0-O ,  1-H ) :   0.9155 B(  0-O ,  2-H ) :   0.9155 

-------
TIMINGS
-------

Total SCF time: 0 days 0 hours 0 min 1 sec 

Total time                  ....       1.137 sec
Sum of individual times     ....       1.134 sec  ( 99.7%)

Fock matrix formation       ....       0.958 sec  ( 84.2%)
Diagonalization             ....       0.002 sec  (  0.2%)
Density matrix formation    ....       0.000 sec  (  0.0%)
Population analysis         ....       0.000 sec  (  0.0%)
Initial guess               ....       0.156 sec  ( 13.7%)
Orbital Transformation      ....       0.000 sec  (  0.0%)
Orbital Orthonormalization  ....       0.000 sec  (  0.0%)
DIIS solution               ....       0.001 sec  (  0.1%)
SOSCF solution              ....       0.001 sec  (  0.1%)

-------------------------   --------------------
FINAL SINGLE POINT ENERGY       -76.003353796740
-------------------------   --------------------


                            ***************************************
                            *     ORCA property calculations      *
                            ***************************************

                                    ---------------------
                                    Active property flags
                                    ---------------------
   (+) Dipole Moment


------------------------------------------------------------------------------
                       ORCA ELECTRIC PROPERTIES CALCULATION
------------------------------------------------------------------------------

Dipole Moment Calculation                       ... on
Quadrupole Moment Calculation                   ... off
Polarizability Calculation                      ... off
GBWName                                         ... orca_bigbasis.input.gbw
Electron density file                           ... orca_bigbasis.input.scfp.tmp

-------------
DIPOLE MOMENT
-------------
                                X             Y             Z
Electronic contribution:     -0.00000      -0.29799      -0.00000
Nuclear contribution   :      0.00000       1.12740       0.00000
                        -----------------------------------------
Total Dipole Moment    :     -0.00000       0.82941      -0.00000
                        -----------------------------------------
Magnitude (a.u.)       :      0.82941
Magnitude (Debye)      :      2.10820


Timings for individual modules:

Sum of individual times         ...        1.326 sec (=   0.022 min)
GTO integral calculation        ...        0.175 sec (=   0.003 min)  13.2 %
SCF iterations                  ...        1.151 sec (=   0.019 min)  86.8 %
                             ****ORCA TERMINATED NORMALLY****
TOTAL RUN TIME: 0 days 0 hours 0 minutes 1 seconds 462 msec
