
                                 *****************
                                 * O   R   C   A *
                                 *****************

           --- An Ab Initio, DFT and Semiempirical electronic structure package ---

                  #######################################################
                  #                        -***-                        #
                  #  Department of molecular theory and spectroscopy    #
                  #              Directorship: Frank Neese              #
                  # Max Planck Institute for Chemical Energy Conversion #
                  #                  D-45470 Muelheim/Ruhr              #
                  #                       Germany                       #
                  #                                                     #
                  #                  All rights reserved                #
                  #                        -***-                        #
                  #######################################################


                         Program Version 4.0.0 -  RELEASE  -


 With contributions from (in alphabetic order):
   Daniel Aravena         : Magnetic Properties
   Michael Atanasov       : Ab Initio Ligand Field Theory
   Ute Becker             : Parallelization
   Martin Brehm           : Molecular dynamics
   Dmytro Bykov           : SCF Hessian
   Vijay G. Chilkuri      : MRCI spin determinant printing
   Dipayan Datta          : RHF DLPNO-CCSD density
   Achintya Kumar Dutta   : EOM-CC, STEOM-CC
   Dmitry Ganyushin       : Spin-Orbit,Spin-Spin,Magnetic field MRCI
   Yang Guo               : DLPNO-NEVPT2, CIM, IAO-localization
   Andreas Hansen         : Spin unrestricted coupled pair/coupled cluster methods
   Lee Huntington         : MR-EOM, pCC
   Robert Izsak           : Overlap fitted RIJCOSX, COSX-SCS-MP3, EOM
   Christian Kollmar      : KDIIS, OOCD, Brueckner-CCSD(T), CCSD density
   Simone Kossmann        : Meta GGA functionals, TD-DFT gradient, OOMP2, MP2 Hessian
   Martin Krupicka        : AUTO-CI
   Dagmar Lenk            : GEPOL surface
   Dimitrios Liakos       : Extrapolation schemes; parallel MDCI
   Dimitrios Manganas     : ROCIS; embedding schemes
   Dimitrios Pantazis     : SARC Basis sets
   Taras Petrenko         : DFT Hessian,TD-DFT gradient, ASA, ECA, R-Raman, ABS, FL, XAS/XES, NRVS
   Peter Pinski           : DLPNO-MP2
   Christoph Reimann      : Effective Core Potentials
   Marius Retegan         : Local ZFS, SOC
   Christoph Riplinger    : Optimizer, TS searches, QM/MM, DLPNO-CCSD(T), (RO)-DLPNO pert. Triples
   Tobias Risthaus        : Range-separated hybrids, TD-DFT gradient, RPA, STAB
   Michael Roemelt        : Restricted open shell CIS
   Masaaki Saitow         : Open-shell DLPNO
   Barbara Sandhoefer     : DKH picture change effects
   Kantharuban Sivalingam : CASSCF convergence, NEVPT2, FIC-MRCI
   Georgi Stoychev        : AutoAux
   Boris Wezisla          : Elementary symmetry handling
   Frank Wennmohs         : Technical directorship


 We gratefully acknowledge several colleagues who have allowed us to
 interface, adapt or use parts of their codes:
   Stefan Grimme, W. Hujo, H. Kruse,             : VdW corrections, initial TS optimization,
                  C. Bannwarth                     DFT functionals, gCP, sTDA/sTD-DF
   Ed Valeev                                     : LibInt (2-el integral package), F12 methods
   Garnet Chan, S. Sharma, J. Yang, R. Olivares  : DMRG
   Ulf Ekstrom                                   : XCFun DFT Library
   Mihaly Kallay                                 : mrcc  (arbitrary order and MRCC methods)
   Jiri Pittner, Ondrej Demel                    : Mk-CCSD
   Frank Weinhold                                : gennbo (NPA and NBO analysis)
   Christopher J. Cramer and Donald G. Truhlar   : smd solvation model


 Your calculation uses the libint2 library for the computation of 2-el integrals
 For citations please refer to: http://libint.valeyev.net

 This ORCA versions uses:
   CBLAS   interface :  Fast vector & matrix operations
   LAPACKE interface :  Fast linear algebra routines
   SCALAPACK package :  Parallel linear algebra routines




*****************************************
The coordinations will be read from file: water_libint.xyz
*****************************************


Your calculation utilizes the basis: STO-3G
   H-Ne       : W. J. Hehre, R. F. Stewart and J. A. Pople, J. Chem. Phys. 2657 (1969).
   Na-Ar      : W. J. Hehre, R. Ditchfield, R. F. Stewart and J. A. Pople, J. Chem. Phys. 2769 (1970).
   K,Ca,Ga-Kr : W. J. Pietro, B. A. Levy, W. J. Hehre and R. F. Stewart, J. Am. Chem. Soc. 19, 2225 (1980).
   Sc-Zn,Y-Cd : W. J. Pietro and W. J. Hehre, J. Comp. Chem. 4, 241 (1983).

================================================================================
                                        WARNINGS
                       Please study these warnings very carefully!
================================================================================

Warning: TCutStore was < 0. Adjusted to Thresh (uncritical)

WARNING: your system is open-shell and RHF/RKS was chosen
  ===> : WILL SWITCH to UHF/UKS


INFO   : the flag for use of LIBINT has been found!

================================================================================
                                       INPUT FILE
================================================================================
NAME = orca_ab.input
|  1> ! HF STO-3G Printbasis 
|  2> %scf print[p_mos] 1 end 
|  3> 
|  4> *xyzfile 1 2 water_libint.xyz 
|  5> 
|  6>                          ****END OF INPUT****
================================================================================

                       ****************************
                       * Single Point Calculation *
                       ****************************

---------------------------------
CARTESIAN COORDINATES (ANGSTROEM)
---------------------------------
  O      0.000000   -0.075790    0.000000
  H      0.866810    0.601440    0.000000
  H     -0.866810    0.601440    0.000000

----------------------------
CARTESIAN COORDINATES (A.U.)
----------------------------
  NO LB      ZA    FRAG     MASS         X           Y           Z
   0 O     8.0000    0    15.999    0.000000   -0.143222    0.000000
   1 H     1.0000    0     1.008    1.638034    1.136557    0.000000
   2 H     1.0000    0     1.008   -1.638034    1.136557    0.000000

--------------------------------
INTERNAL COORDINATES (ANGSTROEM)
--------------------------------
 O      0   0   0     0.000000000000     0.00000000     0.00000000
 H      1   0   0     1.100000022273     0.00000000     0.00000000
 H      1   2   0     1.100000022273   103.99968756     0.00000000

---------------------------
INTERNAL COORDINATES (A.U.)
---------------------------
 O      0   0   0     0.000000000000     0.00000000     0.00000000
 H      1   0   0     2.078698789403     0.00000000     0.00000000
 H      1   2   0     2.078698789403   103.99968756     0.00000000

---------------------
BASIS SET INFORMATION
---------------------
There are 2 groups of distinct atoms

 Group   1 Type O   : 6s3p contracted to 2s1p pattern {33/3}
 Group   2 Type H   : 3s contracted to 1s pattern {3}

Atom   0O    basis set group =>   1
Atom   1H    basis set group =>   2
Atom   2H    basis set group =>   2

-------------------------
BASIS SET IN INPUT FORMAT
-------------------------

 # Basis set for element : H 
 NewGTO H 
 S 3 
   1       3.4252509100      0.1543289707
   2       0.6239137300      0.5353281424
   3       0.1688554000      0.4446345420
  end;

 # Basis set for element : O 
 NewGTO O 
 S 3 
   1     130.7093200000      0.1543289687
   2      23.8088610000      0.5353281356
   3       6.4436083000      0.4446345363
 S 3 
   1       5.0331513000     -0.0999672287
   2       1.1695961000      0.3995128246
   3       0.3803890000      0.7001154606
 P 3 
   1       5.0331513000      0.1559162685
   2       1.1695961000      0.6076837141
   3       0.3803890000      0.3919573862
  end;

------------------------------------------------------------------------------
                           ORCA GTO INTEGRAL CALCULATION
------------------------------------------------------------------------------

                         BASIS SET STATISTICS AND STARTUP INFO

 # of primitive gaussian shells          ...   15
 # of primitive gaussian functions       ...   21
 # of contracted shells                  ...    5
 # of contracted basis functions         ...    7
 Highest angular momentum                ...    1
 Maximum contraction depth               ...    3
 Integral package used                   ... LIBINT
 Integral threshhold            Thresh   ...  1.000e-10
 Primitive cut-off              TCut     ...  1.000e-11


------------------------------ INTEGRAL EVALUATION ----------------------------


 * One electron integrals 
 Pre-screening matrix                    ... done
 Shell pair data                         ... done (   0.000 sec)

-------------------------------------------------------------------------------
                                 ORCA SCF
-------------------------------------------------------------------------------

------------
SCF SETTINGS
------------
Hamiltonian:
 Ab initio Hamiltonian  Method          .... Hartree-Fock(GTOs)


General Settings:
 Integral files         IntName         .... orca_ab.input
 Hartree-Fock type      HFTyp           .... UHF
 Total Charge           Charge          ....    1
 Multiplicity           Mult            ....    2
 Number of Electrons    NEL             ....    9
 Basis Dimension        Dim             ....    7
 Nuclear Repulsion      ENuc            ....      8.0023669345 Eh

Convergence Acceleration:
 DIIS                   CNVDIIS         .... on
   Start iteration      DIISMaxIt       ....    12
   Startup error        DIISStart       ....  0.200000
   # of expansion vecs  DIISMaxEq       ....     5
   Bias factor          DIISBfac        ....   1.050
   Max. coefficient     DIISMaxC        ....  10.000
 Newton-Raphson         CNVNR           .... off
 SOSCF                  CNVSOSCF        .... off
 Level Shifting         CNVShift        .... on
   Level shift para.    LevelShift      ....    0.2500
   Turn off err/grad.   ShiftErr        ....    0.0010
 Zerner damping         CNVZerner       .... off
 Static damping         CNVDamp         .... on
   Fraction old density DampFac         ....    0.7000
   Max. Damping (<1)    DampMax         ....    0.9800
   Min. Damping (>=0)   DampMin         ....    0.0000
   Turn off err/grad.   DampErr         ....    0.1000
 Fernandez-Rico         CNVRico         .... off

SCF Procedure:
 Maximum # iterations   MaxIter         ....   125
 SCF integral mode      SCFMode         .... Direct
   Integral package                     .... LIBINT
 Reset frequeny         DirectResetFreq ....    20
 Integral Threshold     Thresh          ....  1.000e-10 Eh
 Primitive CutOff       TCut            ....  1.000e-11 Eh

Convergence Tolerance:
 Convergence Check Mode ConvCheckMode   .... Total+1el-Energy
 Convergence forced     ConvForced      .... 0
 Energy Change          TolE            ....  1.000e-06 Eh
 1-El. energy change                    ....  1.000e-03 Eh
 DIIS Error             TolErr          ....  1.000e-06


Diagonalization of the overlap matrix:
Smallest eigenvalue                        ... 4.342e-01
Time for diagonalization                   ...    0.000 sec
Threshold for overlap eigenvalues          ... 1.000e-08
Number of eigenvalues below threshold      ... 0
Time for construction of square roots      ...    0.000 sec
Total time needed                          ...    0.000 sec

-------------------
DFT GRID GENERATION
-------------------

General Integration Accuracy     IntAcc      ...  4.340
Radial Grid Type                 RadialGrid  ... Gauss-Chebyshev
Angular Grid (max. acc.)         AngularGrid ... Lebedev-110
Angular grid pruning method      GridPruning ... 3 (G Style)
Weight generation scheme         WeightScheme... Becke
Basis function cutoff            BFCut       ...    1.0000e-10
Integration weight cutoff        WCut        ...    1.0000e-14
Grids for H and He will be reduced by one unit

# of grid points (after initial pruning)     ...   3304 (   0.0 sec)
# of grid points (after weights+screening)   ...   3262 (   0.0 sec)
nearest neighbour list constructed           ...    0.0 sec
Grid point re-assignment to atoms done       ...    0.0 sec
Grid point division into batches done        ...    0.0 sec
Reduced shell lists constructed in    0.0 sec

Total number of grid points                  ...     3262
Total number of batches                      ...       53
Average number of points per batch           ...       61
Average number of grid points per atom       ...     1087
Average number of shells per batch           ...     4.59 (91.85%)
Average number of basis functions per batch  ...     6.56 (93.65%)
Average number of large shells per batch     ...     4.39 (95.56%)
Average number of large basis fcns per batch ...     6.35 (96.89%)
Maximum spatial batch extension              ...  14.35, 20.95, 25.65 au
Average spatial batch extension              ...   4.85,  5.76,  5.94 au

Time for grid setup =    0.008 sec

------------------------------
INITIAL GUESS: MODEL POTENTIAL
------------------------------
Loading Hartree-Fock densities                     ... done
Calculating cut-offs                               ... done
Setting up the integral package                    ... done
Initializing the effective Hamiltonian             ... done
Starting the Coulomb interaction                   ... done (   0.0 sec)
Reading the grid                                   ... done
Mapping shells                                     ... done
Starting the XC term evaluation                    ... done (   0.0 sec)
Transforming the Hamiltonian                       ... done (   0.0 sec)
Diagonalizing the Hamiltonian                      ... done (   0.0 sec)
Back transforming the eigenvectors                 ... done (   0.0 sec)
Now organizing SCF variables                       ... done
                      ------------------
                      INITIAL GUESS DONE (   0.1 sec)
                      ------------------
--------------
SCF ITERATIONS
--------------
ITER       Energy         Delta-E        Max-DP      RMS-DP      [F,P]     Damp
               ***  Starting incremental Fock matrix formation  ***
  0    -74.6544739303   0.000000000000 0.00981461  0.00243492  0.0552224 0.7000
  1    -74.6561927438  -0.001718813565 0.00911696  0.00213472  0.0392040 0.7000
                               ***Turning on DIIS***
  2    -74.6574906700  -0.001297926159 0.02425204  0.00540854  0.0283010 0.0000
  3    -74.6614953861  -0.004004716060 0.01124381  0.00185937  0.0059676 0.0000
  4    -74.6641281624  -0.002632776357 0.01011643  0.00196314  0.0022253 0.0000
  5    -74.6626075182   0.001520644178 0.00792028  0.00168978  0.0008233 0.0000
  6    -74.6618663185   0.000741199770 0.00340497  0.00083020  0.0001126 0.0000
  7    -74.6618154158   0.000050902709 0.00197616  0.00050365  0.0000336 0.0000
  8    -74.6621356700  -0.000320254246 0.00227345  0.00058185  0.0000277 0.0000
  9    -74.6621890424  -0.000053372379 0.00174358  0.00044750  0.0000123 0.0000
 10    -74.6618710290   0.000318013399 0.00030270  0.00007808  0.0000022 0.0000
                            ***DIIS convergence achieved***

               *****************************************************
               *                     SUCCESS                       *
               *           SCF CONVERGED AFTER  11 CYCLES          *
               *****************************************************


----------------
TOTAL SCF ENERGY
----------------

Total Energy       :          -74.66175831 Eh           -2031.64973 eV

Components:
Nuclear Repulsion  :            8.00236693 Eh             217.75547 eV
Electronic Energy  :          -82.66412525 Eh           -2249.40521 eV
One Electron Energy:         -114.71377271 Eh           -3121.52045 eV
Two Electron Energy:           32.04964746 Eh             872.11524 eV

Virial components:
Potential Energy   :         -147.56782845 Eh           -4015.52476 eV
Kinetic Energy     :           72.90607014 Eh            1983.87503 eV
Virial Ratio       :            2.02408151


---------------
SCF CONVERGENCE
---------------

  Last Energy change         ...    1.1272e-04  Tolerance :   1.0000e-06
  Last MAX-Density change    ...    1.0520e-04  Tolerance :   1.0000e-05
  Last RMS-Density change    ...    2.6647e-05  Tolerance :   1.0000e-06
  Last DIIS Error            ...    7.5549e-07  Tolerance :   1.0000e-06

             **** THE GBW FILE WAS UPDATED (orca_ab.input.gbw) ****
             **** DENSITY FILE WAS UPDATED (orca_ab.input.scfp.tmp) ****
             **** ENERGY FILE WAS UPDATED (orca_ab.input.en.tmp) ****
----------------------
UHF SPIN CONTAMINATION
----------------------

Expectation value of <S**2>     :     0.762001
Ideal value S*(S+1) for S=0.5   :     0.750000
Deviation                       :     0.012001

----------------
ORBITAL ENERGIES
----------------
                 SPIN UP ORBITALS
  NO   OCC          E(Eh)            E(eV) 
   0   1.0000     -20.985219      -571.0368 
   1   1.0000      -1.838314       -50.0231 
   2   1.0000      -1.098800       -29.8999 
   3   1.0000      -1.068365       -29.0717 
   4   1.0000      -1.012226       -27.5441 
   5   0.0000      -0.014042        -0.3821 
   6   0.0000       0.078752         2.1429 

                 SPIN DOWN ORBITALS
  NO   OCC          E(Eh)            E(eV) 
   0   1.0000     -20.953206      -570.1657 
   1   1.0000      -1.656462       -45.0746 
   2   1.0000      -1.051220       -28.6051 
   3   1.0000      -0.950720       -25.8704 
   4   0.0000      -0.178089        -4.8461 
   5   0.0000       0.010066         0.2739 
   6   0.0000       0.097391         2.6501 
------------------
MOLECULAR ORBITALS
------------------
                      0         1         2         3         4         5   
                 -20.98522  -1.83831  -1.09880  -1.06836  -1.01223  -0.01404
                   1.00000   1.00000   1.00000   1.00000   1.00000   0.00000
                  --------  --------  --------  --------  --------  --------
  0O   1s         0.994325 -0.249477  0.000000 -0.000000 -0.073145 -0.105195
  0O   2s         0.024543  0.945832  0.000000  0.000000  0.359209  0.662733
  0O   1pz        0.000000  0.000000 -0.000000  1.000000 -0.000000  0.000000
  0O   1px       -0.000000  0.000000  0.759801  0.000000 -0.000000 -0.000000
  0O   1py        0.003119  0.131921 -0.000000 -0.000000 -0.858697  0.597189
  1H   1s        -0.004649  0.079833  0.316802 -0.000000 -0.209435 -0.763510
  2H   1s        -0.004649  0.079833 -0.316802 -0.000000 -0.209435 -0.763510
                      6   
                   0.07875
                   0.00000
                  --------
  0O   1s        -0.000000
  0O   2s         0.000000
  0O   1pz        0.000000
  0O   1px        0.797802
  0O   1py        0.000000
  1H   1s        -0.800839
  2H   1s         0.800839

                      0         1         2         3         4         5   
                 -20.95321  -1.65646  -1.05122  -0.95072  -0.17809   0.01007
                   1.00000   1.00000   1.00000   1.00000   0.00000   0.00000
                  --------  --------  --------  --------  --------  --------
  0O   1s         0.994930  0.237380 -0.000000 -0.088330  0.000000  0.115327
  0O   2s         0.022022 -0.887764  0.000000  0.430972 -0.000000 -0.699357
  0O   1pz        0.000000  0.000000 -0.000000 -0.000000 -1.000000  0.000000
  0O   1px       -0.000000 -0.000000 -0.694753 -0.000000 -0.000000  0.000000
  0O   1py        0.002866 -0.130942  0.000000 -0.823766  0.000000 -0.644719
  1H   1s        -0.004188 -0.135024 -0.378759 -0.240339  0.000000  0.746454
  2H   1s        -0.004188 -0.135024  0.378759 -0.240339  0.000000  0.746454
                      6   
                   0.09739
                   0.00000
                  --------
  0O   1s        -0.000000
  0O   2s         0.000000
  0O   1pz       -0.000000
  0O   1px        0.855046
  0O   1py        0.000000
  1H   1s        -0.773464
  2H   1s         0.773464



                    ********************************
                    * MULLIKEN POPULATION ANALYSIS *
                    ********************************

--------------------------------------------
MULLIKEN ATOMIC CHARGES AND SPIN POPULATIONS
--------------------------------------------
   0 O :    0.149037    1.165990
   1 H :    0.425482   -0.082995
   2 H :    0.425482   -0.082995
Sum of atomic charges         :    1.0000000
Sum of atomic spin populations:    1.0000000

-----------------------------------------------------
MULLIKEN REDUCED ORBITAL CHARGES AND SPIN POPULATIONS
-----------------------------------------------------
CHARGE
  0 O s       :     3.899657  s :     3.899657
      pz      :     1.000000  p :     3.951306
      px      :     1.330485
      py      :     1.620821
  1 H s       :     0.574518  s :     0.574518
  2 H s       :     0.574518  s :     0.574518

SPIN
  0 O s       :     0.035001  s :     0.035001
      pz      :     1.000000  p :     1.130989
      px      :     0.082570
      py      :     0.048419
  1 H s       :    -0.082995  s :    -0.082995
  2 H s       :    -0.082995  s :    -0.082995


                     *******************************
                     * LOEWDIN POPULATION ANALYSIS *
                     *******************************

-------------------------------------------
LOEWDIN ATOMIC CHARGES AND SPIN POPULATIONS
-------------------------------------------
   0 O :    0.289740    1.144646
   1 H :    0.355130   -0.072323
   2 H :    0.355130   -0.072323

----------------------------------------------------
LOEWDIN REDUCED ORBITAL CHARGES AND SPIN POPULATIONS
----------------------------------------------------
CHARGE
  0 O s       :     3.778543  s :     3.778543
      pz      :     1.000000  p :     3.931717
      px      :     1.320857
      py      :     1.610860
  1 H s       :     0.644870  s :     0.644870
  2 H s       :     0.644870  s :     0.644870

SPIN
  0 O s       :     0.026370  s :     0.026370
      pz      :     1.000000  p :     1.118275
      px      :     0.074407
      py      :     0.043868
  1 H s       :    -0.072323  s :    -0.072323
  2 H s       :    -0.072323  s :    -0.072323


                      *****************************
                      * MAYER POPULATION ANALYSIS *
                      *****************************

  NA   - Mulliken gross atomic population
  ZA   - Total nuclear charge
  QA   - Mulliken gross atomic charge
  VA   - Mayer's total valence
  BVA  - Mayer's bonded valence
  FA   - Mayer's free valence

  ATOM       NA         ZA         QA         VA         BVA        FA
  0 O      7.8510     8.0000     0.1490     2.6197     1.6061     1.0136
  1 H      0.5745     1.0000     0.4255     0.8190     0.8121     0.0069
  2 H      0.5745     1.0000     0.4255     0.8190     0.8121     0.0069

  Mayer bond orders larger than 0.1
B(  0-O ,  1-H ) :   0.8031 B(  0-O ,  2-H ) :   0.8031 

-------
TIMINGS
-------

Total SCF time: 0 days 0 hours 0 min 0 sec 

Total time                  ....       0.823 sec
Sum of individual times     ....       0.822 sec  ( 99.8%)

Fock matrix formation       ....       0.691 sec  ( 84.0%)
Diagonalization             ....       0.001 sec  (  0.1%)
Density matrix formation    ....       0.000 sec  (  0.0%)
Population analysis         ....       0.000 sec  (  0.0%)
Initial guess               ....       0.121 sec  ( 14.6%)
Orbital Transformation      ....       0.000 sec  (  0.0%)
Orbital Orthonormalization  ....       0.000 sec  (  0.0%)
DIIS solution               ....       0.001 sec  (  0.1%)

-------------------------   --------------------
FINAL SINGLE POINT ENERGY       -74.661758311421
-------------------------   --------------------


                            ***************************************
                            *     ORCA property calculations      *
                            ***************************************

                                    ---------------------
                                    Active property flags
                                    ---------------------
   (+) Dipole Moment


------------------------------------------------------------------------------
                       ORCA ELECTRIC PROPERTIES CALCULATION
------------------------------------------------------------------------------

Dipole Moment Calculation                       ... on
Quadrupole Moment Calculation                   ... off
Polarizability Calculation                      ... off
GBWName                                         ... orca_ab.input.gbw
Electron density file                           ... orca_ab.input.scfp.tmp

-------------
DIPOLE MOMENT
-------------
                                X             Y             Z
Electronic contribution:      0.00000       0.02833       0.00000
Nuclear contribution   :      0.00000       1.12740       0.00000
                        -----------------------------------------
Total Dipole Moment    :      0.00000       1.15573       0.00000
                        -----------------------------------------
Magnitude (a.u.)       :      1.15573
Magnitude (Debye)      :      2.93764


Timings for individual modules:

Sum of individual times         ...        1.056 sec (=   0.018 min)
GTO integral calculation        ...        0.221 sec (=   0.004 min)  20.9 %
SCF iterations                  ...        0.835 sec (=   0.014 min)  79.1 %
                             ****ORCA TERMINATED NORMALLY****
TOTAL RUN TIME: 0 days 0 hours 0 minutes 1 seconds 183 msec
