 *******************************************************************************
 ** Site#: 25481        For non-commercial use only     Version 16.175L 64BITS**
 *******************************************************************************
 ** Cite this program as: MOPAC2016, Version: 16.175L, James J. P. Stewart,   **
 ** Stewart Computational Chemistry, web: HTTP://OpenMOPAC.net. Days left:  41**
 *******************************************************************************
 **                                                                           **
 **                                MOPAC2016                                  **
 **                                                                           **
 *******************************************************************************

                              PM7 CALCULATION RESULTS


 *******************************************************************************
 *  CALCULATION DONE:                                Sun May 14 11:41:21 2017  *
 *  PM7        - The PM7 Hamiltonian to be used
 *  QMMM       - Generate energies and gradients for use in MM codes
 *  GEO-OK     - OVERRIDE INTERATOMIC DISTANCE AND OTHER SAFETY CHECKS
 *  MOZYME     - USE LOCALIZED M.O.s IN SOLVING THE SCF EQUATIONS
 *  LET        - OVERRIDE SOME SAFETY CHECKS
 *  XYZ        - CARTESIAN COORDINATE SYSTEM TO BE USED
 *  1SCF       - DO 1 SCF AND THEN STOP 
 *  T=         - A TIME OF      2.0 MINUTES REQUESTED
 *  DUMP=N     - RESTART FILE WRITTEN EVERY  7200.000 SECONDS
 *  CUTOFF=    - CUTOFF FOR NDDO AND DIPOLE INTERACTIONS =  9.00A
 *  AUX        - OUTPUT AUXILIARY INFORMATION
 *  GRADIENTS- ALL GRADIENTS TO BE PRINTED
 *  VECTORS    - FINAL MOLECULAR ORBITALS TO BE PRINTED
 *  EIGEN      - CONVERT LMO's INTO EIGENVECTORS
 *  ALLVEC     - PRINT ALL EIGENVECTORS
 *******************************************************************************
PM7 XYZ T=2M 1SCF MOZYME CUTOFF=9.0 EIGEN VECTORS ALLVEC AUX LET GRAD QMMM GEO-OK
 Test System

   ATOM   CHEMICAL          X               Y               Z
  NUMBER   SYMBOL      (ANGSTROMS)     (ANGSTROMS)     (ANGSTROMS)
 
     1       N         51.46891300  *  12.35774900  * -40.31474200  *
     2       H         50.55404700  *  12.56740300  * -39.98139000  *
     3       C         51.98697200  *  13.30086800  * -41.09077900  *
     4       C         51.40681200  *  14.40868100  * -41.73274600  *
     5       H         50.36632200  *  14.60593700  * -41.50341500  *
     6       O         52.17766300  *  17.85367500  * -39.55463300  *
     7       C         57.90625100  *  17.50391900  * -32.44896800  *
     8       H         58.86295600  *  17.04420500  * -32.38515800  *
     9       C         55.68990000  *  17.26537300  * -31.61442200  *
    10       H         54.96405000  *  16.76927000  * -30.91814000  *
    11       C         56.95352500  *  16.80791500  * -31.73873600  *
    12       H         57.18457500  *  15.85121400  * -31.25441700  *
    13       C         56.59607000  *  10.37787100  * -43.21119400  *
    14       O         57.39620300  *  10.56934500  * -42.31093300  *
    15       N         55.37004900  *   9.92642600  * -42.90666100  *
    16       H         54.68811500  *   9.72006100  * -43.58940900  *
    17       C         54.94357900  *   9.72466100  * -41.52091400  *
    18       H         55.79408400  *   9.20510200  * -41.03163200  *
    19       C         54.84496300  *  11.00771100  * -40.70212000  *
    20       H         54.97986000  *  10.65694400  * -39.68207400  *
    21       H         55.68114200  *  11.69148300  * -41.03036000  *
    22       C         53.54493100  *  11.78535400  * -40.71737700  *
    23       C         52.45540800  *  11.52963500  * -39.90404700  *
    24       H         52.37547100  *  10.87952000  * -39.04380600  *
    25       C         53.29787200  *  13.01425700  * -41.35044200  *
    26       C         54.10333100  *  13.84321500  * -42.08564500  *
    27       H         55.09806300  *  13.48906800  * -42.33129900  *
    28       C         53.59025600  *  15.02757500  * -42.66211200  *
    29       H         54.25584700  *  15.72319800  * -43.15068800  *
    30       C         52.19313100  *  15.30837200  * -42.49537700  *
    31       H         51.74030400  *  16.21453700  * -42.89882300  *
    32       C         56.32691300  *  16.64463400  * -35.92795800  *
    33       N         57.27415500  *  15.84149700  * -35.54510100  *
    34       C         56.94625400  *  14.79416800  * -34.81036200  *
    35       N         55.82921300  *  14.76831000  * -34.01029000  *
    36       H         55.88442400  *  13.94589200  * -33.43802900  *
    37       C         54.76674100  *  15.56384500  * -34.15097700  *
    38       C         54.93130100  *  16.68060000  * -35.16295100  *
    39       N         56.56571900  *  17.64226600  * -36.82562700  *
    40       N         54.03835900  *  17.62493400  * -35.39268400  *
    41       N         55.86273300  *  14.75650400  * -39.08591200  *
    42       C         55.20433700  *  13.87046900  * -38.13193900  *
    43       C         53.90922100  *  14.28397100  * -37.74038600  *
    44       N         53.25478600  *  15.49210500  * -38.24718400  *
    45       C         53.84836400  *  16.17140500  * -39.18151900  *
    46       C         55.24110400  *  15.82470600  * -39.68985800  *
    47       N         55.90249100  *  16.48412900  * -40.62014600  *
    48       C         55.32597900  *  17.48427200  * -41.25613300  *
    49       N         54.11731200  *  18.02916500  * -40.83084900  *
    50       H         53.67167400  *  18.85996000  * -41.30132600  *
    51       C         53.28987600  *  17.44788000  * -39.86737100  *
    52       C         55.76896000  *  12.75186500  * -37.53640900  *
    53       H         56.73691800  *  12.38780900  * -37.80302100  *
    54       C         55.13240000  *  12.13246200  * -36.45600100  *
    55       C         53.83007000  *  12.54612200  * -36.07092300  *
    56       C         53.32318100  *  13.65596600  * -36.70037700  *
    57       H         52.31924600  *  13.91653800  * -36.44321900  *
    58       O         57.62176900  *  13.80943000  * -34.80921800  *
    59       O         53.72848300  *  15.43405200  * -33.54906600  *
    60       O         55.95393900  *  17.99762100  * -42.14294300  *
    61       C         53.16806400  *  11.97052600  * -34.82271800  *
    62       H         53.28079300  *  10.93284900  * -34.73635100  *
    63       H         53.49148400  *  12.39238300  * -33.88427700  *
    64       H         52.12386900  *  12.34964000  * -34.66990200  *
    65       C         55.65366900  *  10.87577200  * -35.86466900  *
    66       H         56.68638200  *  10.69451000  * -36.10106200  *
    67       H         55.53138300  *  10.85583600  * -34.75886300  *
    68       H         54.96987800  *  10.13491400  * -36.25954500  *
    69       C         57.13577500  *  14.22454700  * -39.55740900  *
    70       H         56.98509500  *  13.25472600  * -40.12313700  *
    71       H         57.73108000  *  14.94933400  * -40.15155500  *
    72       H         57.79921600  *  13.95675100  * -38.74471800  *
    73       C         57.81701100  *  17.84860500  * -37.55483400  *
    74       H         58.61848100  *  17.04800600  * -37.46205300  *
    75       H         57.65997500  *  18.04531600  * -38.62294100  *
    76       H         58.31884200  *  18.74618800  * -37.16775500  *
    77       C         59.26127900  *  22.45266900  * -33.86971100  *
    78       O         59.24573500  *  22.43423900  * -35.13352500  *
    79       N         58.13499400  *  22.67241900  * -33.16072800  *
    80       H         58.15556400  *  22.87547800  * -32.20891900  *
    81       C         56.93083000  *  22.67790700  * -33.93436100  *
    82       H         57.10999600  *  23.43243700  * -34.69747700  *
    83       C         56.42720400  *  21.29093200  * -34.54857200  *
    84       H         55.75522000  *  21.61114100  * -35.35658000  *
    85       H         57.29629300  *  20.80185900  * -34.96167500  *
    86       C         55.69534200  *  20.35028200  * -33.58350500  *
    87       C         54.38839700  *  20.33427900  * -33.11920200  *
    88       H         53.65301400  *  21.08910000  * -33.41568800  *
    89       N         54.24689300  *  19.21190600  * -32.27508100  *
    90       H         53.35237300  *  18.85544600  * -32.08578200  *
    91       C         55.37995700  *  18.46625900  * -32.27728500  *
    92       C         56.30316100  *  19.12359800  * -33.07131600  *
    93       C         57.54525800  *  18.64618200  * -33.21596400  *
    94       H         58.32041200  *  18.98951000  * -33.89500900  *
    95       C         55.51293700  *  18.64873200  * -37.05891200  *
    96       C         54.31988400  *  18.63473500  * -36.31766200  *
    97       C         55.65901600  *  19.66568900  * -38.01328700  *
    98       H         56.43541200  *  19.80198800  * -38.71118500  *
    99       C         54.62952500  *  20.64520500  * -38.16175500  *
   100       C         53.37572400  *  20.55862600  * -37.47955800  *
   101       C         53.23676300  *  19.53193100  * -36.58974300  *
   102       H         52.33480600  *  19.42418500  * -35.99407400  *
   103       C         52.22523000  *  21.50538000  * -37.79458400  *
   104       H         51.44425700  *  21.53126800  * -37.00969900  *
   105       H         52.56883900  *  22.54792100  * -37.70585000  *
   106       H         51.83125800  *  21.35952200  * -38.80599300  *
   107       C         54.84565500  *  21.73783400  * -39.20027500  *
   108       H         54.32710400  *  21.32999100  * -40.08644000  *
   109       H         54.44304700  *  22.65613400  * -38.90757500  *
   110       H         55.89156900  *  21.86201700  * -39.38337300  *
   111       H         60.17652100  *  22.35888200  * -33.28521500  *
   112       H         56.08323300  *  23.14873600  * -33.43636500  *
   113       H         56.88895100  *  10.55085000  * -44.24676100  *
   114       H         54.14007000  *   8.99362000  * -41.43118400  *
 


          CARTESIAN COORDINATES 

    NO.       ATOM         X         Y         Z

     1         N       51.4689   12.3577  -40.3147
     2         H       50.5540   12.5674  -39.9814
     3         C       51.9870   13.3009  -41.0908
     4         C       51.4068   14.4087  -41.7327
     5         H       50.3663   14.6059  -41.5034
     6         O       52.1777   17.8537  -39.5546
     7         C       57.9063   17.5039  -32.4490
     8         H       58.8630   17.0442  -32.3852
     9         C       55.6899   17.2654  -31.6144
    10         H       54.9641   16.7693  -30.9181
    11         C       56.9535   16.8079  -31.7387
    12         H       57.1846   15.8512  -31.2544
    13         C       56.5961   10.3779  -43.2112
    14         O       57.3962   10.5693  -42.3109
    15         N       55.3700    9.9264  -42.9067
    16         H       54.6881    9.7201  -43.5894
    17         C       54.9436    9.7247  -41.5209
    18         H       55.7941    9.2051  -41.0316
    19         C       54.8450   11.0077  -40.7021
    20         H       54.9799   10.6569  -39.6821
    21         H       55.6811   11.6915  -41.0304
    22         C       53.5449   11.7854  -40.7174
    23         C       52.4554   11.5296  -39.9040
    24         H       52.3755   10.8795  -39.0438
    25         C       53.2979   13.0143  -41.3504
    26         C       54.1033   13.8432  -42.0856
    27         H       55.0981   13.4891  -42.3313
    28         C       53.5903   15.0276  -42.6621
    29         H       54.2558   15.7232  -43.1507
    30         C       52.1931   15.3084  -42.4954
    31         H       51.7403   16.2145  -42.8988
    32         C       56.3269   16.6446  -35.9280
    33         N       57.2742   15.8415  -35.5451
    34         C       56.9463   14.7942  -34.8104
    35         N       55.8292   14.7683  -34.0103
    36         H       55.8844   13.9459  -33.4380
    37         C       54.7667   15.5638  -34.1510
    38         C       54.9313   16.6806  -35.1630
    39         N       56.5657   17.6423  -36.8256
    40         N       54.0384   17.6249  -35.3927
    41         N       55.8627   14.7565  -39.0859
    42         C       55.2043   13.8705  -38.1319
    43         C       53.9092   14.2840  -37.7404
    44         N       53.2548   15.4921  -38.2472
    45         C       53.8484   16.1714  -39.1815
    46         C       55.2411   15.8247  -39.6899
    47         N       55.9025   16.4841  -40.6201
    48         C       55.3260   17.4843  -41.2561
    49         N       54.1173   18.0292  -40.8308
    50         H       53.6717   18.8600  -41.3013
    51         C       53.2899   17.4479  -39.8674
    52         C       55.7690   12.7519  -37.5364
    53         H       56.7369   12.3878  -37.8030
    54         C       55.1324   12.1325  -36.4560
    55         C       53.8301   12.5461  -36.0709
    56         C       53.3232   13.6560  -36.7004
    57         H       52.3192   13.9165  -36.4432
    58         O       57.6218   13.8094  -34.8092
    59         O       53.7285   15.4341  -33.5491
    60         O       55.9539   17.9976  -42.1429
    61         C       53.1681   11.9705  -34.8227
    62         H       53.2808   10.9328  -34.7364
    63         H       53.4915   12.3924  -33.8843
    64         H       52.1239   12.3496  -34.6699
    65         C       55.6537   10.8758  -35.8647
    66         H       56.6864   10.6945  -36.1011
    67         H       55.5314   10.8558  -34.7589
    68         H       54.9699   10.1349  -36.2595
    69         C       57.1358   14.2245  -39.5574
    70         H       56.9851   13.2547  -40.1231
    71         H       57.7311   14.9493  -40.1516
    72         H       57.7992   13.9568  -38.7447
    73         C       57.8170   17.8486  -37.5548
    74         H       58.6185   17.0480  -37.4621
    75         H       57.6600   18.0453  -38.6229
    76         H       58.3188   18.7462  -37.1678
    77         C       59.2613   22.4527  -33.8697
    78         O       59.2457   22.4342  -35.1335
    79         N       58.1350   22.6724  -33.1607
    80         H       58.1556   22.8755  -32.2089
    81         C       56.9308   22.6779  -33.9344
    82         H       57.1100   23.4324  -34.6975
    83         C       56.4272   21.2909  -34.5486
    84         H       55.7552   21.6111  -35.3566
    85         H       57.2963   20.8019  -34.9617
    86         C       55.6953   20.3503  -33.5835
    87         C       54.3884   20.3343  -33.1192
    88         H       53.6530   21.0891  -33.4157
    89         N       54.2469   19.2119  -32.2751
    90         H       53.3524   18.8554  -32.0858
    91         C       55.3800   18.4663  -32.2773
    92         C       56.3032   19.1236  -33.0713
    93         C       57.5453   18.6462  -33.2160
    94         H       58.3204   18.9895  -33.8950
    95         C       55.5129   18.6487  -37.0589
    96         C       54.3199   18.6347  -36.3177
    97         C       55.6590   19.6657  -38.0133
    98         H       56.4354   19.8020  -38.7112
    99         C       54.6295   20.6452  -38.1618
   100         C       53.3757   20.5586  -37.4796
   101         C       53.2368   19.5319  -36.5897
   102         H       52.3348   19.4242  -35.9941
   103         C       52.2252   21.5054  -37.7946
   104         H       51.4443   21.5313  -37.0097
   105         H       52.5688   22.5479  -37.7058
   106         H       51.8313   21.3595  -38.8060
   107         C       54.8457   21.7378  -39.2003
   108         H       54.3271   21.3300  -40.0864
   109         H       54.4430   22.6561  -38.9076
   110         H       55.8916   21.8620  -39.3834
   111         H       60.1765   22.3589  -33.2852
   112         H       56.0832   23.1487  -33.4364
   113         H       56.8890   10.5509  -44.2468
   114         H       54.1401    8.9936  -41.4312

 General Reference for PM7:
 "Optimization of Parameters for Semiempirical Methods VI: More Modifications to the 
 NDDO Approximations and Re-optimization of Parameters", J. J. P. Stewart, J. Mol. Mod., 1:32, 19 (2013)
 http://www.springerlink.com/openurl.asp?genre=article&id=doi:10.1007/s00894-012-1667-x

           Empirical Formula: C48 H48 N12 O6  =   114 atoms



      MOLECULAR POINT GROUP   :   C1  

 -------------------------------------------------------------------------------
PM7 XYZ T=2M 1SCF MOZYME CUTOFF=9.0 EIGEN VECTORS ALLVEC AUX LET GRAD QMMM GEO-OK
 Test System



     1SCF WAS SPECIFIED, SO BFGS WAS NOT USED                 
     SCF FIELD WAS ACHIEVED                                   


                              PM7 CALCULATION
                                                       MOPAC2016 (Version: 16.175L)
                                                       Sun May 14 11:41:22 2017
                                                       No. of days remaining =  41




          FINAL HEAT OF FORMATION =         28.89021 KCAL/MOL =     120.87666 KJ/MOL


          TOTAL ENERGY            =     -10544.48462 EV
          ELECTRONIC ENERGY       =    -154595.10080 EV
          CORE-CORE REPULSION     =     144050.61619 EV

          GRADIENT NORM           =        514.95453
          NO. OF FILLED LEVELS    =        168
          MOLECULAR WEIGHT        =        888.9840

          MOLECULAR DIMENSIONS (Angstroms)

            Atom       Atom       Distance
            H    80    H    16    17.73707
            H   109    H    67    11.09497
            H   113    H   104     7.36837


          SCF CALCULATIONS        =          1
 
          WALL-CLOCK TIME         =          0.457 SECONDS
          COMPUTATION TIME        =          0.457 SECONDS



       FINAL  POINT  AND  DERIVATIVES

             Cartesian Gradients         Cartesian Coordinates          |Gradient|
  Atom       X        Y        Z        X          Y          Z
 
    1  N  103.471   -0.142  -48.460   51.46891   12.35775  -40.31474     114.257
    2  H    8.603   23.794  -21.717   50.55405   12.56740  -39.98139      33.344
    3  C   27.327 -100.831   75.866   51.98697   13.30087  -41.09078     129.110
    4  C   -6.897  -42.736   10.399   51.40681   14.40868  -41.73275      44.521
    5  H    2.527   -5.278    8.441   50.36632   14.60594  -41.50341      10.271
    6  O  -42.398    2.571   19.790   52.17766   17.85367  -39.55463      46.860
    7  C   -2.528  -22.818   30.939   57.90625   17.50392  -32.44897      38.526
    8  H  -23.094   -8.308   14.359   58.86296   17.04421  -32.38516      28.435
    9  C   62.641  -16.840  -24.646   55.68990   17.26537  -31.61442      69.390
   10  H   -7.591   -8.420   18.530   54.96405   16.76927  -30.91814      21.723
   11  C   -7.392   35.252  -22.543   56.95352   16.80792  -31.73874      42.491
   12  H   -7.703   -1.621   -0.229   57.18458   15.85121  -31.25442       7.875
   13  C  -40.444  -12.211   -3.564   56.59607   10.37787  -43.21119      42.397
   14  O  -10.891   -5.248   -5.539   57.39620   10.56935  -42.31093      13.298
   15  N   50.238   14.447    3.414   55.37005    9.92643  -42.90666      52.386
   16  H   10.226   -2.131   11.636   54.68812    9.72006  -43.58941      15.636
   17  C  -26.314    5.504    0.518   54.94358    9.72466  -41.52091      26.888
   18  H  -11.542   14.906   -6.673   55.79408    9.20510  -41.03163      19.999
   19  C   33.728  -27.797    7.427   54.84496   11.00771  -40.70212      44.333
   20  H  -10.589   -6.879  -20.443   54.97986   10.65694  -39.68207      24.028
   21  H    5.342    4.834   -8.685   55.68114   11.69148  -41.03036      11.284
   22  C  -69.379   50.877  -26.442   53.54493   11.78535  -40.71738      90.006
   23  C  -21.710   53.795  -25.855   52.45541   11.52964  -39.90405      63.512
   24  H    3.610    4.787    9.156   52.37547   10.87952  -39.04381      10.945
   25  C  -64.290   14.879   25.375   53.29787   13.01426  -41.35044      70.700
   26  C  -10.940  -46.157   54.602   54.10333   13.84322  -42.08564      72.329
   27  H   -8.478   -7.857   -2.256   55.09806   13.48907  -42.33130      11.777
   28  C   18.582   27.548  -29.816   53.59026   15.02758  -42.66211      44.645
   29  H    2.286    0.583    5.321   54.25585   15.72320  -43.15069       5.820
   30  C   -3.794   38.342  -27.770   52.19313   15.30837  -42.49538      47.494
   31  H   -4.027    6.407    0.682   51.74030   16.21454  -42.89882       7.598
   32  C   51.418  -55.890  -19.567   56.32691   16.64463  -35.92796      78.425
   33  N  -29.685  -54.959   60.260   57.27416   15.84150  -35.54510      86.793
   34  C  -39.946   38.199    3.951   56.94625   14.79417  -34.81036      55.411
   35  N   -2.789   42.832  -35.353   55.82921   14.76831  -34.01029      55.608
   36  H   25.782   12.732  -25.920   55.88442   13.94589  -33.43803      38.713
   37  C   63.662  -63.123   16.650   54.76674   15.56385  -34.15098      91.184
   38  C   -7.764  -38.791   44.069   54.93130   16.68060  -35.16295      59.221
   39  N   50.627  -36.634   16.199   56.56572   17.64227  -36.82563      64.557
   40  N  -41.126   40.657  -17.384   54.03836   17.62493  -35.39268      60.387
   41  N   11.462   39.153  -24.400   55.86273   14.75650  -39.08591      47.537
   42  C    3.029  -57.156   38.639   55.20434   13.87047  -38.13194      69.058
   43  C  -16.910  -86.670   52.287   53.90922   14.28397  -37.74039     102.623
   44  N  -27.189   27.950   13.913   53.25479   15.49211  -38.24718      41.401
   45  C  -19.334    0.487   -0.531   53.84836   16.17141  -39.18152      19.348
   46  C   10.478   33.533  -28.750   55.24110   15.82471  -39.68986      45.396
   47  N  -22.296   79.079  -56.968   55.90249   16.48413  -40.62015      99.980
   48  C  -15.737  -57.050   44.403   55.32598   17.48427  -41.25613      73.987
   49  N   70.631  -26.281  -16.715   54.11731   18.02916  -40.83085      77.193
   50  H  -17.307   12.149   -0.402   53.67167   18.85996  -41.30133      21.149
   51  C   32.308   30.710  -37.458   53.28988   17.44788  -39.86737      58.224
   52  C   -2.977    1.082  -18.108   55.76896   12.75187  -37.53641      18.383
   53  H  -13.072    3.754    7.560   56.73692   12.38781  -37.80302      15.561
   54  C   23.258   -0.372   13.395   55.13240   12.13246  -36.45600      26.842
   55  C  -30.293    8.811  -44.025   53.83007   12.54612  -36.07092      54.162
   56  C   58.239   35.155  -29.868   53.32318   13.65597  -36.70038      74.295
   57  H   21.292  -16.727   -9.720   52.31925   13.91654  -36.44322      28.768
   58  O  -37.529   52.972   -9.051   57.62177   13.80943  -34.80922      65.546
   59  O    4.352    6.841   -9.016   53.72848   15.43405  -33.54907      12.126
   60  O   -0.149  -31.033   36.987   55.95394   17.99762  -42.14294      48.281
   61  C   11.507  -41.122   23.397   53.16806   11.97053  -34.82272      48.691
   62  H    6.111   26.370    2.598   53.28079   10.93285  -34.73635      27.193
   63  H  -22.983   -8.901   -8.042   53.49148   12.39238  -33.88428      25.926
   64  H   -1.812   14.089   15.899   52.12387   12.34964  -34.66990      21.320
   65  C   10.410  -17.224  -10.475   55.65367   10.87577  -35.86467      22.688
   66  H  -10.735    7.337    1.534   56.68638   10.69451  -36.10106      13.093
   67  H   -6.639    0.211    5.484   55.53138   10.85584  -34.75886       8.614
   68  H   -2.526   25.725    2.558   54.96988   10.13491  -36.25955      25.975
   69  C   -6.134    8.409   16.172   57.13578   14.22455  -39.55741      19.232
   70  H    0.106  -15.850    1.014   56.98510   13.25473  -40.12314      15.882
   71  H    7.944   -0.177    5.651   57.73108   14.94933  -40.15156       9.750
   72  H   -6.483   -0.497  -15.941   57.79922   13.95675  -38.74472      17.216
   73  C  -16.561    1.821   -7.369   57.81701   17.84860  -37.55483      18.218
   74  H   23.560   -1.934   -4.280   58.61848   17.04801  -37.46205      24.024
   75  H    5.556    7.590    5.193   57.65998   18.04532  -38.62294      10.744
   76  H   -3.119   -6.861   -5.648   58.31884   18.74619  -37.16775       9.419
   77  C  -36.755   -2.692   82.474   59.26128   22.45267  -33.86971      90.333
   78  O   -2.508    6.468  -75.296   59.24574   22.43424  -35.13352      75.615
   79  N    1.192   12.615   -4.315   58.13499   22.67242  -33.16073      13.385
   80  H    9.532    4.591  -21.621   58.15556   22.87548  -32.20892      24.071
   81  C   44.817    7.900    4.352   56.93083   22.67791  -33.93436      45.715
   82  H    2.747   -3.856   32.586   57.11000   23.43244  -34.69748      32.928
   83  C   16.230  -13.087  -44.655   56.42720   21.29093  -34.54857      49.282
   84  H    3.451    7.910    6.012   55.75522   21.61114  -35.35658      10.518
   85  H   -8.854    9.620    8.561   57.29629   20.80186  -34.96167      15.628
   86  C  -17.897  -11.906   23.629   55.69534   20.35028  -33.58351      31.944
   87  C  -27.663  -15.532   19.358   54.38840   20.33428  -33.11920      37.165
   88  H    1.420   17.696  -16.554   53.65301   21.08910  -33.41569      24.273
   89  N   68.179  -38.003    2.582   54.24689   19.21191  -32.27508      78.098
   90  H   12.122    6.744   -9.133   53.35237   18.85545  -32.08578      16.608
   91  C    5.388   45.639  -29.537   55.37996   18.46626  -32.27728      54.629
   92  C    5.654  -70.282   35.979   56.30316   19.12360  -33.07132      79.158
   93  C  -97.677   68.112  -13.788   57.54526   18.64618  -33.21596     119.875
   94  H    3.734  -13.250    0.531   58.32041   18.98951  -33.89501      13.777
   95  C  -41.208   21.504    1.403   55.51294   18.64873  -37.05891      46.503
   96  C   22.325   22.261   -1.221   54.31988   18.63473  -36.31766      31.551
   97  C   52.184  -35.924   -5.390   55.65902   19.66569  -38.01329      63.583
   98  H  -26.305    9.284    4.623   56.43541   19.80199  -38.71119      28.276
   99  C   -5.613   13.818   -2.075   54.62953   20.64521  -38.16175      15.058
  100  C   -8.149  -14.764   27.971   53.37572   20.55863  -37.47956      32.661
  101  C  -17.427   11.554  -24.506   53.23676   19.53193  -36.58974      32.214
  102  H    5.577    5.338   -0.127   52.33481   19.42419  -35.99407       7.721
  103  C  -27.559   -2.473  -21.461   52.22523   21.50538  -37.79458      35.017
  104  H    0.640   14.070    9.746   51.44426   21.53127  -37.00970      17.128
  105  H   -3.933   -2.133    7.264   52.56884   22.54792  -37.70585       8.532
  106  H    2.548    4.471   -5.088   51.83126   21.35952  -38.80599       7.237
  107  C    8.903   56.260  -17.326   54.84566   21.73783  -39.20027      59.537
  108  H   -2.937  -11.481    9.279   54.32710   21.32999  -40.08644      15.052
  109  H   12.277  -26.904   -4.858   54.44305   22.65613  -38.90758      29.969
  110  H  -16.296   -6.213    9.741   55.89157   21.86202  -39.38337      19.976
  111  H   -7.405    2.267    3.390   60.17652   22.35888  -33.28522       8.454
  112  H    8.881    2.181  -18.922   56.08323   23.14874  -33.43637      21.016
  113  H    5.364    0.969    7.156   56.88895   10.55085  -44.24676       8.996
  114  H   15.812   -6.417    4.601   54.14007    8.99362  -41.43118      17.674
 




   ATOM   CHEMICAL          X               Y               Z
  NUMBER   SYMBOL      (ANGSTROMS)     (ANGSTROMS)     (ANGSTROMS)
 
     1       N         51.46891300  *  12.35774900  * -40.31474200  *
     2       H         50.55404700  *  12.56740300  * -39.98139000  *
     3       C         51.98697200  *  13.30086800  * -41.09077900  *
     4       C         51.40681200  *  14.40868100  * -41.73274600  *
     5       H         50.36632200  *  14.60593700  * -41.50341500  *
     6       O         52.17766300  *  17.85367500  * -39.55463300  *
     7       C         57.90625100  *  17.50391900  * -32.44896800  *
     8       H         58.86295600  *  17.04420500  * -32.38515800  *
     9       C         55.68990000  *  17.26537300  * -31.61442200  *
    10       H         54.96405000  *  16.76927000  * -30.91814000  *
    11       C         56.95352500  *  16.80791500  * -31.73873600  *
    12       H         57.18457500  *  15.85121400  * -31.25441700  *
    13       C         56.59607000  *  10.37787100  * -43.21119400  *
    14       O         57.39620300  *  10.56934500  * -42.31093300  *
    15       N         55.37004900  *   9.92642600  * -42.90666100  *
    16       H         54.68811500  *   9.72006100  * -43.58940900  *
    17       C         54.94357900  *   9.72466100  * -41.52091400  *
    18       H         55.79408400  *   9.20510200  * -41.03163200  *
    19       C         54.84496300  *  11.00771100  * -40.70212000  *
    20       H         54.97986000  *  10.65694400  * -39.68207400  *
    21       H         55.68114200  *  11.69148300  * -41.03036000  *
    22       C         53.54493100  *  11.78535400  * -40.71737700  *
    23       C         52.45540800  *  11.52963500  * -39.90404700  *
    24       H         52.37547100  *  10.87952000  * -39.04380600  *
    25       C         53.29787200  *  13.01425700  * -41.35044200  *
    26       C         54.10333100  *  13.84321500  * -42.08564500  *
    27       H         55.09806300  *  13.48906800  * -42.33129900  *
    28       C         53.59025600  *  15.02757500  * -42.66211200  *
    29       H         54.25584700  *  15.72319800  * -43.15068800  *
    30       C         52.19313100  *  15.30837200  * -42.49537700  *
    31       H         51.74030400  *  16.21453700  * -42.89882300  *
    32       C         56.32691300  *  16.64463400  * -35.92795800  *
    33       N         57.27415500  *  15.84149700  * -35.54510100  *
    34       C         56.94625400  *  14.79416800  * -34.81036200  *
    35       N         55.82921300  *  14.76831000  * -34.01029000  *
    36       H         55.88442400  *  13.94589200  * -33.43802900  *
    37       C         54.76674100  *  15.56384500  * -34.15097700  *
    38       C         54.93130100  *  16.68060000  * -35.16295100  *
    39       N         56.56571900  *  17.64226600  * -36.82562700  *
    40       N         54.03835900  *  17.62493400  * -35.39268400  *
    41       N         55.86273300  *  14.75650400  * -39.08591200  *
    42       C         55.20433700  *  13.87046900  * -38.13193900  *
    43       C         53.90922100  *  14.28397100  * -37.74038600  *
    44       N         53.25478600  *  15.49210500  * -38.24718400  *
    45       C         53.84836400  *  16.17140500  * -39.18151900  *
    46       C         55.24110400  *  15.82470600  * -39.68985800  *
    47       N         55.90249100  *  16.48412900  * -40.62014600  *
    48       C         55.32597900  *  17.48427200  * -41.25613300  *
    49       N         54.11731200  *  18.02916500  * -40.83084900  *
    50       H         53.67167400  *  18.85996000  * -41.30132600  *
    51       C         53.28987600  *  17.44788000  * -39.86737100  *
    52       C         55.76896000  *  12.75186500  * -37.53640900  *
    53       H         56.73691800  *  12.38780900  * -37.80302100  *
    54       C         55.13240000  *  12.13246200  * -36.45600100  *
    55       C         53.83007000  *  12.54612200  * -36.07092300  *
    56       C         53.32318100  *  13.65596600  * -36.70037700  *
    57       H         52.31924600  *  13.91653800  * -36.44321900  *
    58       O         57.62176900  *  13.80943000  * -34.80921800  *
    59       O         53.72848300  *  15.43405200  * -33.54906600  *
    60       O         55.95393900  *  17.99762100  * -42.14294300  *
    61       C         53.16806400  *  11.97052600  * -34.82271800  *
    62       H         53.28079300  *  10.93284900  * -34.73635100  *
    63       H         53.49148400  *  12.39238300  * -33.88427700  *
    64       H         52.12386900  *  12.34964000  * -34.66990200  *
    65       C         55.65366900  *  10.87577200  * -35.86466900  *
    66       H         56.68638200  *  10.69451000  * -36.10106200  *
    67       H         55.53138300  *  10.85583600  * -34.75886300  *
    68       H         54.96987800  *  10.13491400  * -36.25954500  *
    69       C         57.13577500  *  14.22454700  * -39.55740900  *
    70       H         56.98509500  *  13.25472600  * -40.12313700  *
    71       H         57.73108000  *  14.94933400  * -40.15155500  *
    72       H         57.79921600  *  13.95675100  * -38.74471800  *
    73       C         57.81701100  *  17.84860500  * -37.55483400  *
    74       H         58.61848100  *  17.04800600  * -37.46205300  *
    75       H         57.65997500  *  18.04531600  * -38.62294100  *
    76       H         58.31884200  *  18.74618800  * -37.16775500  *
    77       C         59.26127900  *  22.45266900  * -33.86971100  *
    78       O         59.24573500  *  22.43423900  * -35.13352500  *
    79       N         58.13499400  *  22.67241900  * -33.16072800  *
    80       H         58.15556400  *  22.87547800  * -32.20891900  *
    81       C         56.93083000  *  22.67790700  * -33.93436100  *
    82       H         57.10999600  *  23.43243700  * -34.69747700  *
    83       C         56.42720400  *  21.29093200  * -34.54857200  *
    84       H         55.75522000  *  21.61114100  * -35.35658000  *
    85       H         57.29629300  *  20.80185900  * -34.96167500  *
    86       C         55.69534200  *  20.35028200  * -33.58350500  *
    87       C         54.38839700  *  20.33427900  * -33.11920200  *
    88       H         53.65301400  *  21.08910000  * -33.41568800  *
    89       N         54.24689300  *  19.21190600  * -32.27508100  *
    90       H         53.35237300  *  18.85544600  * -32.08578200  *
    91       C         55.37995700  *  18.46625900  * -32.27728500  *
    92       C         56.30316100  *  19.12359800  * -33.07131600  *
    93       C         57.54525800  *  18.64618200  * -33.21596400  *
    94       H         58.32041200  *  18.98951000  * -33.89500900  *
    95       C         55.51293700  *  18.64873200  * -37.05891200  *
    96       C         54.31988400  *  18.63473500  * -36.31766200  *
    97       C         55.65901600  *  19.66568900  * -38.01328700  *
    98       H         56.43541200  *  19.80198800  * -38.71118500  *
    99       C         54.62952500  *  20.64520500  * -38.16175500  *
   100       C         53.37572400  *  20.55862600  * -37.47955800  *
   101       C         53.23676300  *  19.53193100  * -36.58974300  *
   102       H         52.33480600  *  19.42418500  * -35.99407400  *
   103       C         52.22523000  *  21.50538000  * -37.79458400  *
   104       H         51.44425700  *  21.53126800  * -37.00969900  *
   105       H         52.56883900  *  22.54792100  * -37.70585000  *
   106       H         51.83125800  *  21.35952200  * -38.80599300  *
   107       C         54.84565500  *  21.73783400  * -39.20027500  *
   108       H         54.32710400  *  21.32999100  * -40.08644000  *
   109       H         54.44304700  *  22.65613400  * -38.90757500  *
   110       H         55.89156900  *  21.86201700  * -39.38337300  *
   111       H         60.17652100  *  22.35888200  * -33.28521500  *
   112       H         56.08323300  *  23.14873600  * -33.43636500  *
   113       H         56.88895100  *  10.55085000  * -44.24676100  *
   114       H         54.14007000  *   8.99362000  * -41.43118400  *

                             CARTESIAN COORDINATES

   1    N       51.468913000    12.357749000   -40.314742000
   2    H       50.554047000    12.567403000   -39.981390000
   3    C       51.986972000    13.300868000   -41.090779000
   4    C       51.406812000    14.408681000   -41.732746000
   5    H       50.366322000    14.605937000   -41.503415000
   6    O       52.177663000    17.853675000   -39.554633000
   7    C       57.906251000    17.503919000   -32.448968000
   8    H       58.862956000    17.044205000   -32.385158000
   9    C       55.689900000    17.265373000   -31.614422000
  10    H       54.964050000    16.769270000   -30.918140000
  11    C       56.953525000    16.807915000   -31.738736000
  12    H       57.184575000    15.851214000   -31.254417000
  13    C       56.596070000    10.377871000   -43.211194000
  14    O       57.396203000    10.569345000   -42.310933000
  15    N       55.370049000     9.926426000   -42.906661000
  16    H       54.688115000     9.720061000   -43.589409000
  17    C       54.943579000     9.724661000   -41.520914000
  18    H       55.794084000     9.205102000   -41.031632000
  19    C       54.844963000    11.007711000   -40.702120000
  20    H       54.979860000    10.656944000   -39.682074000
  21    H       55.681142000    11.691483000   -41.030360000
  22    C       53.544931000    11.785354000   -40.717377000
  23    C       52.455408000    11.529635000   -39.904047000
  24    H       52.375471000    10.879520000   -39.043806000
  25    C       53.297872000    13.014257000   -41.350442000
  26    C       54.103331000    13.843215000   -42.085645000
  27    H       55.098063000    13.489068000   -42.331299000
  28    C       53.590256000    15.027575000   -42.662112000
  29    H       54.255847000    15.723198000   -43.150688000
  30    C       52.193131000    15.308372000   -42.495377000
  31    H       51.740304000    16.214537000   -42.898823000
  32    C       56.326913000    16.644634000   -35.927958000
  33    N       57.274155000    15.841497000   -35.545101000
  34    C       56.946254000    14.794168000   -34.810362000
  35    N       55.829213000    14.768310000   -34.010290000
  36    H       55.884424000    13.945892000   -33.438029000
  37    C       54.766741000    15.563845000   -34.150977000
  38    C       54.931301000    16.680600000   -35.162951000
  39    N       56.565719000    17.642266000   -36.825627000
  40    N       54.038359000    17.624934000   -35.392684000
  41    N       55.862733000    14.756504000   -39.085912000
  42    C       55.204337000    13.870469000   -38.131939000
  43    C       53.909221000    14.283971000   -37.740386000
  44    N       53.254786000    15.492105000   -38.247184000
  45    C       53.848364000    16.171405000   -39.181519000
  46    C       55.241104000    15.824706000   -39.689858000
  47    N       55.902491000    16.484129000   -40.620146000
  48    C       55.325979000    17.484272000   -41.256133000
  49    N       54.117312000    18.029165000   -40.830849000
  50    H       53.671674000    18.859960000   -41.301326000
  51    C       53.289876000    17.447880000   -39.867371000
  52    C       55.768960000    12.751865000   -37.536409000
  53    H       56.736918000    12.387809000   -37.803021000
  54    C       55.132400000    12.132462000   -36.456001000
  55    C       53.830070000    12.546122000   -36.070923000
  56    C       53.323181000    13.655966000   -36.700377000
  57    H       52.319246000    13.916538000   -36.443219000
  58    O       57.621769000    13.809430000   -34.809218000
  59    O       53.728483000    15.434052000   -33.549066000
  60    O       55.953939000    17.997621000   -42.142943000
  61    C       53.168064000    11.970526000   -34.822718000
  62    H       53.280793000    10.932849000   -34.736351000
  63    H       53.491484000    12.392383000   -33.884277000
  64    H       52.123869000    12.349640000   -34.669902000
  65    C       55.653669000    10.875772000   -35.864669000
  66    H       56.686382000    10.694510000   -36.101062000
  67    H       55.531383000    10.855836000   -34.758863000
  68    H       54.969878000    10.134914000   -36.259545000
  69    C       57.135775000    14.224547000   -39.557409000
  70    H       56.985095000    13.254726000   -40.123137000
  71    H       57.731080000    14.949334000   -40.151555000
  72    H       57.799216000    13.956751000   -38.744718000
  73    C       57.817011000    17.848605000   -37.554834000
  74    H       58.618481000    17.048006000   -37.462053000
  75    H       57.659975000    18.045316000   -38.622941000
  76    H       58.318842000    18.746188000   -37.167755000
  77    C       59.261279000    22.452669000   -33.869711000
  78    O       59.245735000    22.434239000   -35.133525000
  79    N       58.134994000    22.672419000   -33.160728000
  80    H       58.155564000    22.875478000   -32.208919000
  81    C       56.930830000    22.677907000   -33.934361000
  82    H       57.109996000    23.432437000   -34.697477000
  83    C       56.427204000    21.290932000   -34.548572000
  84    H       55.755220000    21.611141000   -35.356580000
  85    H       57.296293000    20.801859000   -34.961675000
  86    C       55.695342000    20.350282000   -33.583505000
  87    C       54.388397000    20.334279000   -33.119202000
  88    H       53.653014000    21.089100000   -33.415688000
  89    N       54.246893000    19.211906000   -32.275081000
  90    H       53.352373000    18.855446000   -32.085782000
  91    C       55.379957000    18.466259000   -32.277285000
  92    C       56.303161000    19.123598000   -33.071316000
  93    C       57.545258000    18.646182000   -33.215964000
  94    H       58.320412000    18.989510000   -33.895009000
  95    C       55.512937000    18.648732000   -37.058912000
  96    C       54.319884000    18.634735000   -36.317662000
  97    C       55.659016000    19.665689000   -38.013287000
  98    H       56.435412000    19.801988000   -38.711185000
  99    C       54.629525000    20.645205000   -38.161755000
 100    C       53.375724000    20.558626000   -37.479558000
 101    C       53.236763000    19.531931000   -36.589743000
 102    H       52.334806000    19.424185000   -35.994074000
 103    C       52.225230000    21.505380000   -37.794584000
 104    H       51.444257000    21.531268000   -37.009699000
 105    H       52.568839000    22.547921000   -37.705850000
 106    H       51.831258000    21.359522000   -38.805993000
 107    C       54.845655000    21.737834000   -39.200275000
 108    H       54.327104000    21.329991000   -40.086440000
 109    H       54.443047000    22.656134000   -38.907575000
 110    H       55.891569000    21.862017000   -39.383373000
 111    H       60.176521000    22.358882000   -33.285215000
 112    H       56.083233000    23.148736000   -33.436365000
 113    H       56.888951000    10.550850000   -44.246761000
 114    H       54.140070000     8.993620000   -41.431184000


           Empirical Formula: C48 H48 N12 O6  =   114 atoms


  Occupied Orbitals



    Root No.     1       2       3       4       5       6       7       8  

             -39.245 -38.937 -38.526 -37.686 -37.646 -37.560 -37.556 -37.294

 S   N     1 -0.0003  0.7685  0.0067 -0.0007  0.0020 -0.0013  0.0069  0.0022 
 Px  N     1 -0.0000  0.0900  0.0006 -0.0000  0.0001 -0.0000  0.0002 -0.0004 
 Py  N     1 -0.0000  0.0409  0.0002 -0.0000  0.0001 -0.0000  0.0002  0.0004 
 Pz  N     1  0.0000 -0.0184 -0.0002  0.0000 -0.0001  0.0000 -0.0002  0.0003 
 S   H     2 -0.0001  0.2263  0.0020 -0.0002  0.0006 -0.0004  0.0021  0.0009 
 S   C     3 -0.0001  0.3174  0.0016 -0.0002  0.0006 -0.0003  0.0018  0.0002 
 Px  C     3  0.0000 -0.0390 -0.0013  0.0001 -0.0004  0.0003 -0.0015 -0.0011 
 Py  C     3  0.0001 -0.1650 -0.0021  0.0002 -0.0005  0.0003 -0.0017  0.0003 
 Pz  C     3 -0.0001  0.1248  0.0012 -0.0001  0.0002 -0.0001  0.0006  0.0005 
 S   C     4 -0.0000  0.0557 -0.0007 -0.0001  0.0002 -0.0001  0.0004  0.0003 
 Px  C     4 -0.0000  0.0091 -0.0010 -0.0000  0.0000  0.0000 -0.0001 -0.0001 
 Py  C     4  0.0000 -0.0480 -0.0009  0.0000 -0.0000  0.0000 -0.0001 -0.0001 
 Pz  C     4 -0.0000  0.0322  0.0002 -0.0000  0.0000 -0.0000  0.0000  0.0002 
 S   H     5 -0.0000  0.0249 -0.0001 -0.0000  0.0001 -0.0000  0.0003  0.0002 
 S   O     6  0.0000  0.0000 -0.0071 -0.0017  0.0048 -0.0031  0.0161 -0.0004 
 Px  O     6 -0.0001  0.0001 -0.0313 -0.0030  0.0081 -0.0049  0.0257 -0.0006 
 Py  O     6 -0.0000 -0.0001  0.0005 -0.0002  0.0007 -0.0004  0.0023 -0.0001 
 Pz  O     6  0.0000 -0.0000  0.0183  0.0021 -0.0056  0.0033 -0.0172  0.0004 
 S   C     7 -0.0044 -0.0000  0.0000  0.0077  0.0036 -0.0004 -0.0002 -0.0000 
 Px  C     7  0.0023  0.0000 -0.0000 -0.0084 -0.0045 -0.0001  0.0004 -0.0000 
 Py  C     7  0.0020  0.0000 -0.0000  0.0044  0.0015 -0.0004 -0.0001 -0.0000 
 Pz  C     7  0.0016  0.0000  0.0000 -0.0006  0.0008  0.0003 -0.0003  0.0000 
 S   H     8 -0.0021 -0.0000  0.0000  0.0004 -0.0000 -0.0002  0.0000 -0.0000 
 S   C     9 -0.0053 -0.0000  0.0001  0.0497  0.0281  0.0011 -0.0027  0.0000 
 Px  C     9 -0.0011 -0.0000  0.0000 -0.0221 -0.0116 -0.0005  0.0010 -0.0000 
 Py  C     9  0.0024  0.0000 -0.0001  0.0425  0.0213  0.0008 -0.0016  0.0000 
 Pz  C     9  0.0033  0.0000 -0.0000 -0.0187 -0.0104 -0.0004  0.0009 -0.0000 
 S   H    10 -0.0023 -0.0000  0.0000  0.0177  0.0104  0.0004 -0.0011  0.0000 
 S   C    11 -0.0072 -0.0000  0.0001  0.0082  0.0064  0.0001 -0.0009  0.0000 
 Px  C    11  0.0019  0.0000 -0.0000 -0.0066 -0.0044 -0.0002  0.0005 -0.0000 
 Py  C    11  0.0024  0.0000 -0.0001  0.0103  0.0041  0.0000 -0.0001 -0.0000 
 Pz  C    11  0.0040  0.0000 -0.0001 -0.0035 -0.0024 -0.0000  0.0003 -0.0000 
 S   H    12 -0.0050 -0.0000  0.0001 -0.0005  0.0017  0.0001 -0.0005  0.0000 
 S   C    13 -0.0000 -0.0002 -0.0007  0.0004 -0.0013  0.0013 -0.0068 -0.3068 
 Px  C    13  0.0000  0.0001  0.0004 -0.0002  0.0008 -0.0008  0.0040  0.1840 
 Py  C    13  0.0000  0.0001  0.0001 -0.0001  0.0003 -0.0003  0.0014  0.0688 
 Pz  C    13 -0.0000 -0.0000 -0.0002  0.0001 -0.0003  0.0003 -0.0016 -0.0631 
 S   O    14 -0.0000 -0.0000 -0.0002  0.0001 -0.0003  0.0003 -0.0016 -0.0643 
 Px  O    14  0.0000  0.0001  0.0002 -0.0001  0.0004 -0.0004  0.0019  0.0803 
 Py  O    14  0.0000  0.0001  0.0000 -0.0000  0.0001 -0.0001  0.0004  0.0236 
 Pz  O    14  0.0000  0.0000  0.0001 -0.0000  0.0001 -0.0001  0.0008  0.0373 
 S   N    15 -0.0000 -0.0003 -0.0017  0.0011 -0.0035  0.0033 -0.0179 -0.8152 
 Px  N    15 -0.0000 -0.0003 -0.0001  0.0001 -0.0002  0.0002 -0.0009 -0.0423 
 Py  N    15 -0.0000  0.0001 -0.0001  0.0000 -0.0001  0.0001 -0.0005 -0.0158 
 Pz  N    15 -0.0000 -0.0001 -0.0001  0.0000 -0.0001  0.0000 -0.0002  0.0023 
 S   H    16 -0.0000  0.0002 -0.0005  0.0003 -0.0011  0.0011 -0.0057 -0.2615 
 S   C    17 -0.0000  0.0009 -0.0008  0.0004 -0.0012  0.0011 -0.0060 -0.2401 
 Px  C    17 -0.0000 -0.0019 -0.0002  0.0001 -0.0003  0.0003 -0.0014 -0.0583 
 Py  C    17 -0.0000  0.0012 -0.0002  0.0001 -0.0002  0.0002 -0.0010 -0.0261 
 Pz  C    17 -0.0000  0.0007  0.0002 -0.0002  0.0006 -0.0006  0.0031  0.1530 
 S   H    18 -0.0000 -0.0000 -0.0003  0.0002 -0.0005  0.0004 -0.0023 -0.0884 
 S   C    19 -0.0001  0.0097 -0.0013  0.0004 -0.0011  0.0009 -0.0045 -0.0697 
 Px  C    19 -0.0000 -0.0129 -0.0005  0.0001 -0.0003  0.0002 -0.0011 -0.0133 
 Py  C    19 -0.0000  0.0070 -0.0005  0.0001 -0.0002  0.0001 -0.0007  0.0289 
 Pz  C    19 -0.0000  0.0018 -0.0000 -0.0000  0.0001 -0.0001  0.0005  0.0409 
 S   H    20 -0.0001  0.0056 -0.0008  0.0002 -0.0006  0.0005 -0.0025 -0.0215 
 S   H    21 -0.0001  0.0034 -0.0020  0.0004 -0.0013  0.0010 -0.0050 -0.0396 
 S   C    22 -0.0001  0.1428  0.0002  0.0001 -0.0004  0.0003 -0.0016 -0.0169 
 Px  C    22  0.0000 -0.1028 -0.0014  0.0002 -0.0006  0.0004 -0.0022 -0.0109 
 Py  C    22 -0.0000  0.0480 -0.0002  0.0001 -0.0002  0.0001 -0.0006  0.0088 
 Pz  C    22 -0.0000  0.0170  0.0001  0.0000 -0.0001  0.0000 -0.0002  0.0058 
 S   C    23 -0.0001  0.2811  0.0022 -0.0002  0.0005 -0.0003  0.0016 -0.0026 
 Px  C    23  0.0000 -0.1097 -0.0013  0.0002 -0.0005  0.0003 -0.0018 -0.0035 
 Py  C    23 -0.0001  0.1478  0.0011 -0.0001  0.0002 -0.0002  0.0008  0.0016 
 Pz  C    23  0.0000 -0.0879 -0.0007  0.0001 -0.0002  0.0001 -0.0007  0.0018 
 S   H    24 -0.0000  0.0617  0.0004 -0.0000  0.0001 -0.0000  0.0001 -0.0013 
 S   C    25 -0.0001  0.1508 -0.0013  0.0001 -0.0004  0.0004 -0.0020 -0.0053 
 Px  C    25  0.0000 -0.0905 -0.0019  0.0002 -0.0007  0.0005 -0.0025 -0.0033 
 Py  C    25  0.0000 -0.0420 -0.0020  0.0001 -0.0003  0.0002 -0.0012  0.0037 
 Pz  C    25 -0.0000  0.0594  0.0002  0.0001 -0.0002  0.0002 -0.0008  0.0005 
 S   C    26 -0.0001  0.0175 -0.0059  0.0002 -0.0007  0.0006 -0.0034 -0.0039 
 Px  C    26 -0.0000 -0.0174 -0.0014  0.0001 -0.0004  0.0003 -0.0015 -0.0009 
 Py  C    26 -0.0000 -0.0107 -0.0036 -0.0001  0.0002 -0.0001  0.0003  0.0025 
 Pz  C    26 -0.0000  0.0126 -0.0020  0.0002 -0.0006  0.0005 -0.0025 -0.0004 
 S   H    27 -0.0000  0.0033 -0.0039  0.0003 -0.0008  0.0006 -0.0034 -0.0048 
 S   C    28 -0.0000  0.0045 -0.0085 -0.0003  0.0007 -0.0003  0.0014 -0.0006 
 Px  C    28 -0.0000 -0.0036 -0.0030 -0.0000  0.0001  0.0000 -0.0002 -0.0003 
 Py  C    28 -0.0000 -0.0050 -0.0035 -0.0003  0.0008 -0.0004  0.0023  0.0005 
 Pz  C    28 -0.0000  0.0043 -0.0035 -0.0000  0.0000  0.0001 -0.0004 -0.0001 
 S   H    29 -0.0001 -0.0003 -0.0094 -0.0005  0.0011 -0.0005  0.0028 -0.0003 
 S   C    30 -0.0000  0.0057 -0.0037 -0.0002  0.0005 -0.0003  0.0014 -0.0000 
 Px  C    30 -0.0000  0.0006 -0.0025 -0.0001  0.0003 -0.0001  0.0006 -0.0001 
 Py  C    30 -0.0000 -0.0087 -0.0012 -0.0001  0.0003 -0.0002  0.0010  0.0001 
 Pz  C    30 -0.0000  0.0058 -0.0012 -0.0000  0.0001 -0.0000  0.0001 -0.0000 
 S   H    31 -0.0000 -0.0002 -0.0024 -0.0002  0.0005 -0.0003  0.0014 -0.0000 
 S   C    32 -0.2012 -0.0000 -0.0078  0.1469 -0.2737 -0.0087  0.0933 -0.0007 
 Px  C    32 -0.0565 -0.0000 -0.0007  0.0228 -0.0478 -0.0017  0.0170 -0.0001 
 Py  C    32  0.0757  0.0001 -0.0039  0.0505 -0.0891 -0.0032  0.0313 -0.0002 
 Pz  C    32 -0.0481 -0.0001  0.0047 -0.0447  0.0839  0.0024 -0.0264  0.0002 
 S   N    33 -0.3861 -0.0002 -0.0017  0.0966 -0.1905 -0.0061  0.0665 -0.0005 
 Px  N    33  0.1213  0.0001  0.0003 -0.0248  0.0485  0.0015 -0.0169  0.0001 
 Py  N    33  0.0261  0.0000 -0.0018  0.0260 -0.0476 -0.0016  0.0163 -0.0001 
 Pz  N    33 -0.0481 -0.0000  0.0019 -0.0164  0.0302  0.0008 -0.0091  0.0000 
 S   C    34 -0.3526 -0.0002  0.0043 -0.0168  0.0258  0.0005 -0.0063  0.0000 
 Px  C    34  0.1219  0.0001 -0.0024  0.0239 -0.0445 -0.0012  0.0141 -0.0001 
 Py  C    34 -0.0729 -0.0000 -0.0006  0.0260 -0.0502 -0.0016  0.0176 -0.0001 
 Pz  C    34 -0.0346 -0.0000  0.0023 -0.0320  0.0610  0.0016 -0.0194  0.0001 
 S   N    35 -0.6781 -0.0004  0.0132 -0.1226  0.2250  0.0059 -0.0699  0.0004 
 Px  N    35 -0.0144 -0.0000 -0.0000  0.0040 -0.0086 -0.0003  0.0030 -0.0000 
 Py  N    35 -0.0332 -0.0000  0.0002  0.0035 -0.0058 -0.0002  0.0023 -0.0000 
 Pz  N    35  0.0640  0.0000 -0.0006  0.0010 -0.0007  0.0000 -0.0000  0.0000 
 S   H    36 -0.1955 -0.0001  0.0040 -0.0396  0.0728  0.0020 -0.0229  0.0001 
 S   C    37 -0.2404 -0.0002  0.0044 -0.0342  0.0694  0.0018 -0.0211  0.0001 
 Px  C    37 -0.1505 -0.0001  0.0026 -0.0216  0.0379  0.0009 -0.0115  0.0001 
 Py  C    37  0.0902  0.0001 -0.0023  0.0288 -0.0473 -0.0013  0.0156 -0.0001 
 Pz  C    37  0.0048 -0.0000  0.0006 -0.0100  0.0198  0.0005 -0.0062  0.0000 
 S   C    38 -0.0930 -0.0000 -0.0023  0.0621 -0.0962 -0.0030  0.0340 -0.0002 
 Px  C    38 -0.0508 -0.0000  0.0002 -0.0009 -0.0058 -0.0003  0.0021 -0.0000 
 Py  C    38  0.0524  0.0000 -0.0024  0.0407 -0.0624 -0.0020  0.0221 -0.0002 
 Pz  C    38 -0.0166 -0.0000  0.0022 -0.0275  0.0538  0.0015 -0.0170  0.0001 
 S   N    39 -0.1077  0.0001 -0.0216  0.3117 -0.5785 -0.0189  0.1974 -0.0015 
 Px  N    39 -0.0039 -0.0000  0.0008 -0.0108  0.0174  0.0005 -0.0059  0.0000 
 Py  N    39  0.0249 -0.0000  0.0008 -0.0134  0.0260  0.0005 -0.0078  0.0000 
 Pz  N    39 -0.0204 -0.0000  0.0005  0.0190 -0.0341 -0.0012  0.0125 -0.0001 
 S   N    40 -0.0083  0.0001 -0.0051  0.1146 -0.1707 -0.0054  0.0605 -0.0004 
 Px  N    40 -0.0093  0.0000 -0.0017  0.0346 -0.0541 -0.0018  0.0191 -0.0001 
 Py  N    40  0.0059 -0.0000  0.0001 -0.0005  0.0033  0.0000 -0.0007 -0.0000 
 Pz  N    40 -0.0002 -0.0000  0.0011 -0.0150  0.0303  0.0010 -0.0099  0.0001 
 S   N    41 -0.0074  0.0063 -0.3014  0.0581 -0.1672  0.1169 -0.6143  0.0157 
 Px  N    41  0.0003 -0.0008  0.0161 -0.0032  0.0093 -0.0066  0.0347 -0.0011 
 Py  N    41 -0.0003  0.0001 -0.0331  0.0005 -0.0015  0.0010 -0.0050  0.0006 
 Pz  N    41 -0.0004 -0.0003  0.0322 -0.0004  0.0020 -0.0025  0.0135 -0.0003 
 S   C    42 -0.0046  0.0033 -0.0788  0.0199 -0.0569  0.0393 -0.2065  0.0050 
 Px  C    42 -0.0008 -0.0008 -0.0192  0.0038 -0.0109  0.0075 -0.0396  0.0008 
 Py  C    42 -0.0014  0.0006 -0.0415  0.0093 -0.0262  0.0176 -0.0922  0.0027 
 Pz  C    42 -0.0011 -0.0013  0.0405 -0.0081  0.0233 -0.0165  0.0869 -0.0021 
 S   C    43 -0.0034  0.0039 -0.0357  0.0121 -0.0341  0.0229 -0.1201  0.0033 
 Px  C    43 -0.0015 -0.0007 -0.0154  0.0030 -0.0087  0.0060 -0.0313  0.0007 
 Py  C    43 -0.0004 -0.0003 -0.0143  0.0048 -0.0131  0.0081 -0.0424  0.0014 
 Pz  C    43 -0.0012 -0.0018  0.0185 -0.0045  0.0127 -0.0087  0.0458 -0.0013 
 S   N    44 -0.0023  0.0050 -0.0584  0.0217 -0.0601  0.0393 -0.2059  0.0062 
 Px  N    44 -0.0010  0.0011 -0.0255  0.0068 -0.0189  0.0123 -0.0646  0.0019 
 Py  N    44  0.0002 -0.0009 -0.0006 -0.0010  0.0030 -0.0024  0.0128 -0.0003 
 Pz  N    44  0.0000 -0.0011  0.0159 -0.0028  0.0081 -0.0058  0.0303 -0.0009 
 S   C    45 -0.0018  0.0030 -0.1220  0.0093 -0.0266  0.0186 -0.0978  0.0032 
 Px  C    45 -0.0007 -0.0001 -0.0498  0.0013 -0.0040  0.0031 -0.0164  0.0005 
 Py  C    45  0.0005 -0.0016 -0.0124 -0.0090  0.0252 -0.0168  0.0881 -0.0024 
 Pz  C    45 -0.0004  0.0005  0.0374  0.0082 -0.0214  0.0124 -0.0646  0.0017 
 S   C    46 -0.0039  0.0037 -0.3037  0.0170 -0.0518  0.0394 -0.2078  0.0062 
 Px  C    46 -0.0010  0.0002 -0.0594  0.0055 -0.0162  0.0117 -0.0615  0.0016 
 Py  C    46  0.0007 -0.0010 -0.0411 -0.0149  0.0416 -0.0277  0.1454 -0.0033 
 Pz  C    46 -0.0006  0.0003  0.0669  0.0113 -0.0297  0.0172 -0.0896  0.0021 
 S   N    47 -0.0036  0.0029 -0.4864 -0.0076  0.0136  0.0002 -0.0033  0.0018 
 Px  N    47  0.0008 -0.0008  0.1354  0.0047 -0.0108  0.0043 -0.0221  0.0001 
 Py  N    47  0.0001 -0.0002 -0.0319 -0.0070  0.0191 -0.0124  0.0648 -0.0015 
 Pz  N    47 -0.0007  0.0005 -0.0433  0.0041 -0.0118  0.0081 -0.0427  0.0012 
 S   C    48 -0.0017  0.0014 -0.3302 -0.0201  0.0511 -0.0275  0.1428 -0.0027 
 Px  C    48  0.0001 -0.0002  0.0643  0.0084 -0.0225  0.0136 -0.0710  0.0018 
 Py  C    48  0.0005 -0.0004  0.0545 -0.0025  0.0080 -0.0065  0.0344 -0.0012 
 Pz  C    48 -0.0007  0.0006 -0.1097 -0.0040  0.0098 -0.0046  0.0239 -0.0003 
 S   N    49 -0.0020  0.0018 -0.5313 -0.0482  0.1264 -0.0736  0.3836 -0.0088 
 Px  N    49 -0.0002  0.0002 -0.0315 -0.0007  0.0016 -0.0005  0.0026  0.0001 
 Py  N    49  0.0003 -0.0003  0.0625  0.0033 -0.0083  0.0043 -0.0223  0.0004 
 Pz  N    49 -0.0001  0.0001 -0.0174 -0.0007  0.0019 -0.0011  0.0058 -0.0001 
 S   H    50 -0.0005  0.0004 -0.1377 -0.0134  0.0354 -0.0208  0.1085 -0.0025 
 S   C    51 -0.0008  0.0009 -0.1867 -0.0149  0.0390 -0.0227  0.1183 -0.0026 
 Px  C    51 -0.0005  0.0004 -0.1003 -0.0067  0.0174 -0.0099  0.0516 -0.0011 
 Py  C    51  0.0000 -0.0003 -0.0286 -0.0055  0.0149 -0.0093  0.0486 -0.0013 
 Pz  C    51  0.0002 -0.0002  0.0850  0.0092 -0.0239  0.0138 -0.0718  0.0017 
 S   C    52 -0.0033  0.0010 -0.0151  0.0043 -0.0127  0.0091 -0.0481  0.0006 
 Px  C    52  0.0003 -0.0005 -0.0002 -0.0002  0.0007 -0.0007  0.0036 -0.0001 
 Py  C    52 -0.0017  0.0003 -0.0129  0.0035 -0.0100  0.0068 -0.0356  0.0010 
 Pz  C    52 -0.0015 -0.0004  0.0102 -0.0026  0.0074 -0.0049  0.0255 -0.0004 
 S   H    53 -0.0014  0.0004 -0.0083  0.0021 -0.0062  0.0043 -0.0227  0.0001 
 S   C    54 -0.0041  0.0006 -0.0003 -0.0001 -0.0004  0.0012 -0.0067 -0.0002 
 Px  C    54 -0.0001 -0.0002 -0.0003  0.0000 -0.0001  0.0000 -0.0000 -0.0000 
 Py  C    54 -0.0024  0.0002 -0.0018  0.0004 -0.0015  0.0014 -0.0075  0.0002 
 Pz  C    54 -0.0014 -0.0003  0.0016 -0.0010  0.0024 -0.0012  0.0061  0.0000 
 S   C    55 -0.0043  0.0008  0.0003 -0.0004  0.0004  0.0009 -0.0050 -0.0000 
 Px  C    55 -0.0018 -0.0001 -0.0005 -0.0001 -0.0001  0.0005 -0.0026 -0.0000 
 Py  C    55 -0.0019  0.0002 -0.0007  0.0002 -0.0008  0.0009 -0.0046  0.0001 
 Pz  C    55 -0.0012 -0.0006  0.0010 -0.0008  0.0020 -0.0010  0.0051 -0.0001 
 S   C    56 -0.0034  0.0019 -0.0032  0.0019 -0.0057  0.0043 -0.0229  0.0006 
 Px  C    56 -0.0021 -0.0001 -0.0029  0.0008 -0.0026  0.0020 -0.0107  0.0002 
 Py  C    56 -0.0004 -0.0001 -0.0030  0.0014 -0.0038  0.0023 -0.0119  0.0004 
 Pz  C    56 -0.0012 -0.0013  0.0041 -0.0020  0.0053 -0.0032  0.0168 -0.0005 
 S   H    57 -0.0012  0.0011 -0.0008  0.0006 -0.0019  0.0014 -0.0072  0.0002 
 S   O    58 -0.0528 -0.0000  0.0011 -0.0123  0.0217  0.0007 -0.0072  0.0000 
 Px  O    58  0.0606  0.0000 -0.0011  0.0104 -0.0187 -0.0005  0.0059 -0.0000 
 Py  O    58 -0.0637 -0.0000  0.0008 -0.0038  0.0057  0.0001 -0.0015  0.0000 
 Pz  O    58 -0.0095 -0.0000  0.0005 -0.0061  0.0117  0.0003 -0.0036  0.0000 
 S   O    59 -0.0158 -0.0000  0.0006 -0.0070  0.0169  0.0005 -0.0054  0.0000 
 Px  O    59 -0.0484 -0.0000  0.0011 -0.0102  0.0211  0.0006 -0.0066  0.0000 
 Py  O    59  0.0122  0.0000 -0.0003  0.0048 -0.0064 -0.0002  0.0022 -0.0000 
 Pz  O    59  0.0143  0.0000 -0.0003  0.0022 -0.0047 -0.0001  0.0015 -0.0000 
 S   O    60 -0.0001  0.0001 -0.0380 -0.0038  0.0100 -0.0059  0.0308 -0.0007 
 Px  O    60  0.0001 -0.0001  0.0389  0.0037 -0.0097  0.0056 -0.0294  0.0007 
 Py  O    60  0.0002 -0.0001  0.0303  0.0014 -0.0033  0.0016 -0.0080  0.0001 
 Pz  O    60 -0.0003  0.0002 -0.0565 -0.0039  0.0099 -0.0055  0.0285 -0.0006 
 S   C    61 -0.0031  0.0002  0.0007 -0.0009  0.0018 -0.0002  0.0006 -0.0001 
 Px  C    61 -0.0013 -0.0000  0.0002 -0.0003  0.0006 -0.0000  0.0000 -0.0000 
 Py  C    61 -0.0013  0.0000  0.0001 -0.0003  0.0005  0.0000 -0.0003  0.0000 
 Pz  C    61 -0.0005 -0.0001 -0.0002 -0.0001  0.0002  0.0000 -0.0002  0.0000 
 S   H    62 -0.0011  0.0001  0.0003 -0.0003  0.0007 -0.0001  0.0003 -0.0000 
 S   H    63 -0.0045  0.0001  0.0003 -0.0011  0.0020 -0.0000 -0.0003 -0.0000 
 S   H    64 -0.0012  0.0001  0.0002 -0.0003  0.0006 -0.0000  0.0000 -0.0000 
 S   C    65 -0.0016  0.0001  0.0007 -0.0005  0.0010 -0.0001  0.0006 -0.0002 
 Px  C    65  0.0002 -0.0001 -0.0003  0.0001 -0.0002  0.0001 -0.0004  0.0000 
 Py  C    65 -0.0010  0.0000  0.0002 -0.0002  0.0003  0.0000 -0.0002 -0.0000 
 Pz  C    65 -0.0004 -0.0001  0.0000 -0.0001  0.0003 -0.0001  0.0004  0.0001 
 S   H    66 -0.0007  0.0001  0.0000 -0.0001  0.0002  0.0001 -0.0004 -0.0001 
 S   H    67 -0.0017  0.0000  0.0003 -0.0004  0.0008 -0.0001  0.0002 -0.0001 
 S   H    68 -0.0005  0.0002  0.0003 -0.0002  0.0003 -0.0000  0.0002 -0.0002 
 S   C    69 -0.0023  0.0017 -0.0838  0.0160 -0.0461  0.0321 -0.1686  0.0033 
 Px  C    69  0.0012 -0.0011  0.0550 -0.0103  0.0298 -0.0211  0.1111 -0.0027 
 Py  C    69 -0.0006  0.0003 -0.0294  0.0041 -0.0118  0.0082 -0.0431  0.0017 
 Pz  C    69 -0.0008  0.0003 -0.0137  0.0041 -0.0116  0.0077 -0.0406  0.0013 
 S   H    70 -0.0007  0.0008 -0.0255  0.0050 -0.0145  0.0101 -0.0533 -0.0005 
 S   H    71 -0.0008  0.0005 -0.0331  0.0049 -0.0141  0.0096 -0.0506  0.0010 
 S   H    72 -0.0014  0.0005 -0.0251  0.0056 -0.0158  0.0105 -0.0549  0.0010 
 S   C    73 -0.0280  0.0001 -0.0080  0.0824 -0.1542 -0.0050  0.0516 -0.0004 
 Px  C    73  0.0166 -0.0000  0.0043 -0.0528  0.0984  0.0032 -0.0334  0.0002 
 Py  C    73  0.0075 -0.0000  0.0009 -0.0089  0.0168  0.0003 -0.0048  0.0000 
 Pz  C    73 -0.0141 -0.0000 -0.0005  0.0323 -0.0601 -0.0021  0.0212 -0.0002 
 S   H    74 -0.0119  0.0000 -0.0028  0.0239 -0.0450 -0.0013  0.0141 -0.0001 
 S   H    75 -0.0075  0.0000 -0.0064  0.0257 -0.0483 -0.0014  0.0153 -0.0001 
 S   H    76 -0.0089  0.0000 -0.0025  0.0275 -0.0514 -0.0019  0.0174 -0.0001 
 S   C    77 -0.0001  0.0000 -0.0000  0.0055 -0.0057 -0.2903 -0.0532  0.0000 
 Px  C    77  0.0000 -0.0000  0.0000 -0.0034  0.0035  0.1767  0.0324 -0.0000 
 Py  C    77 -0.0000 -0.0000 -0.0000  0.0006 -0.0007 -0.0360 -0.0066  0.0000 
 Pz  C    77 -0.0000  0.0000 -0.0000  0.0019 -0.0019 -0.0999 -0.0183  0.0000 
 S   O    78 -0.0000  0.0000 -0.0000  0.0008 -0.0010 -0.0436 -0.0080  0.0000 
 Px  O    78  0.0000 -0.0000  0.0000 -0.0006  0.0007  0.0306  0.0056 -0.0000 
 Py  O    78  0.0000 -0.0000  0.0000  0.0001 -0.0001 -0.0066 -0.0012  0.0000 
 Pz  O    78 -0.0000  0.0000 -0.0000  0.0013 -0.0014 -0.0681 -0.0125  0.0000 
 S   N    79 -0.0001  0.0000 -0.0001  0.0155 -0.0154 -0.8036 -0.1472  0.0000 
 Px  N    79 -0.0000 -0.0000  0.0000  0.0004 -0.0006 -0.0303 -0.0056  0.0000 
 Py  N    79  0.0000 -0.0000  0.0000 -0.0001 -0.0000 -0.0009 -0.0002  0.0000 
 Pz  N    79  0.0000 -0.0000  0.0000 -0.0006  0.0009  0.0388  0.0071 -0.0000 
 S   H    80 -0.0000  0.0000 -0.0000  0.0052 -0.0048 -0.2591 -0.0475  0.0000 
 S   C    81 -0.0001  0.0000 -0.0000  0.0054 -0.0048 -0.2439 -0.0446  0.0000 
 Px  C    81 -0.0000  0.0000 -0.0000  0.0019 -0.0034 -0.1517 -0.0278  0.0000 
 Py  C    81  0.0000 -0.0000  0.0000 -0.0010 -0.0004 -0.0042 -0.0008  0.0000 
 Pz  C    81 -0.0000  0.0000 -0.0000  0.0023 -0.0011 -0.0851 -0.0157  0.0000 
 S   H    82 -0.0000  0.0000 -0.0000  0.0018 -0.0020 -0.0930 -0.0170  0.0000 
 S   C    83 -0.0002  0.0000 -0.0001  0.0087  0.0007 -0.0547 -0.0097 -0.0000 
 Px  C    83 -0.0001 -0.0000 -0.0000 -0.0052 -0.0036 -0.0273 -0.0047 -0.0000 
 Py  C    83  0.0001 -0.0000  0.0000 -0.0071 -0.0035 -0.0274 -0.0050  0.0000 
 Pz  C    83  0.0000 -0.0000  0.0000  0.0063  0.0035 -0.0192 -0.0040  0.0000 
 S   H    84 -0.0001  0.0000 -0.0001  0.0042 -0.0001 -0.0163 -0.0026 -0.0000 
 S   H    85 -0.0004  0.0000 -0.0001  0.0047 -0.0013 -0.0316 -0.0051 -0.0000 
 S   C    86 -0.0006  0.0000 -0.0001  0.1170  0.0597 -0.0119 -0.0073  0.0000 
 Px  C    86  0.0000 -0.0000  0.0000 -0.0522 -0.0282 -0.0095  0.0009 -0.0000 
 Py  C    86  0.0005  0.0000  0.0000 -0.0575 -0.0296 -0.0103  0.0006 -0.0000 
 Pz  C    86 -0.0001 -0.0000  0.0000  0.0532  0.0297  0.0035 -0.0024  0.0000 
 S   C    87 -0.0007  0.0000 -0.0001  0.2360  0.1248  0.0021 -0.0112  0.0000 
 Px  C    87 -0.0002 -0.0000 -0.0000  0.0198  0.0100 -0.0022 -0.0013  0.0000 
 Py  C    87  0.0005 -0.0000  0.0001 -0.1464 -0.0775 -0.0046  0.0063 -0.0000 
 Pz  C    87 -0.0002 -0.0000 -0.0000  0.0874  0.0476  0.0025 -0.0042  0.0000 
 S   H    88 -0.0001  0.0000 -0.0000  0.0485  0.0254 -0.0006 -0.0024  0.0000 
 S   N    89 -0.0022 -0.0000 -0.0002  0.6885  0.3671  0.0140 -0.0321  0.0001 
 Px  N    89 -0.0004 -0.0000 -0.0000  0.0523  0.0276  0.0006 -0.0024  0.0000 
 Py  N    89  0.0003  0.0000  0.0000 -0.0128 -0.0068 -0.0005  0.0005 -0.0000 
 Pz  N    89  0.0003 -0.0000  0.0000 -0.0583 -0.0305 -0.0010  0.0026 -0.0000 
 S   H    90 -0.0008 -0.0000 -0.0001  0.2129  0.1134  0.0045 -0.0099  0.0000 
 S   C    91 -0.0033 -0.0000 -0.0001  0.2740  0.1453  0.0051 -0.0126  0.0000 
 Px  C    91 -0.0005 -0.0000  0.0001 -0.1313 -0.0703 -0.0031  0.0061 -0.0000 
 Py  C    91  0.0015  0.0000 -0.0001  0.1188  0.0629  0.0017 -0.0056  0.0000 
 Pz  C    91  0.0010  0.0000  0.0000 -0.0282 -0.0135 -0.0001  0.0009  0.0000 
 S   C    92 -0.0025 -0.0000 -0.0001  0.1346  0.0685 -0.0021 -0.0062  0.0000 
 Px  C    92  0.0000 -0.0000  0.0000 -0.0927 -0.0493 -0.0032  0.0040 -0.0000 
 Py  C    92  0.0018  0.0000 -0.0000  0.0069  0.0045 -0.0034 -0.0013  0.0000 
 Pz  C    92  0.0003 -0.0000  0.0000  0.0311  0.0189  0.0021 -0.0019  0.0000 
 S   C    93 -0.0031 -0.0000 -0.0000  0.0211  0.0078 -0.0032 -0.0006 -0.0000 
 Px  C    93  0.0010  0.0000  0.0000 -0.0232 -0.0115 -0.0000  0.0009 -0.0000 
 Py  C    93  0.0020  0.0000 -0.0000  0.0033  0.0022 -0.0022 -0.0007  0.0000 
 Pz  C    93  0.0006 -0.0000  0.0001  0.0056  0.0053  0.0009 -0.0008  0.0000 
 S   H    94 -0.0016 -0.0000 -0.0001  0.0041 -0.0012 -0.0037  0.0001 -0.0000 
 S   C    95 -0.0210  0.0001 -0.0085  0.1004 -0.1812 -0.0065  0.0631 -0.0005 
 Px  C    95 -0.0124  0.0000 -0.0023  0.0368 -0.0711 -0.0023  0.0240 -0.0002 
 Py  C    95  0.0152 -0.0000  0.0036 -0.0496  0.0911  0.0026 -0.0304  0.0002 
 Pz  C    95 -0.0058 -0.0000  0.0008  0.0208 -0.0346 -0.0011  0.0116 -0.0001 
 S   C    96 -0.0051  0.0000 -0.0040  0.0635 -0.1006 -0.0036  0.0357 -0.0003 
 Px  C    96 -0.0066  0.0000 -0.0015  0.0204 -0.0378 -0.0014  0.0130 -0.0001 
 Py  C    96  0.0048 -0.0000  0.0016 -0.0297  0.0493  0.0013 -0.0167  0.0001 
 Pz  C    96 -0.0001 -0.0000  0.0005  0.0127 -0.0134 -0.0003  0.0050 -0.0000 
 S   C    97 -0.0029  0.0000 -0.0050  0.0219 -0.0400 -0.0021  0.0160 -0.0001 
 Px  C    97 -0.0019  0.0000  0.0004  0.0051 -0.0101 -0.0002  0.0027 -0.0000 
 Py  C    97  0.0034 -0.0000  0.0024 -0.0171  0.0315  0.0010 -0.0111  0.0001 
 Pz  C    97 -0.0018 -0.0000  0.0010  0.0117 -0.0211 -0.0007  0.0062 -0.0000 
 S   H    98 -0.0018  0.0000 -0.0038  0.0095 -0.0176 -0.0011  0.0077 -0.0001 
 S   C    99  0.0006  0.0000 -0.0027  0.0021 -0.0031 -0.0008  0.0033 -0.0001 
 Px  C    99 -0.0002  0.0000 -0.0002  0.0013 -0.0026 -0.0002  0.0009 -0.0000 
 Py  C    99  0.0001 -0.0000  0.0014 -0.0033  0.0056  0.0003 -0.0027  0.0000 
 Pz  C    99  0.0000 -0.0000  0.0009  0.0021 -0.0035 -0.0001  0.0003  0.0000 
 S   C   100  0.0007  0.0000 -0.0011  0.0015 -0.0014 -0.0005  0.0015 -0.0000 
 Px  C   100  0.0001  0.0000 -0.0006  0.0017 -0.0027 -0.0003  0.0013 -0.0000 
 Py  C   100 -0.0002 -0.0000  0.0005 -0.0022  0.0034  0.0002 -0.0015  0.0000 
 Pz  C   100  0.0001 -0.0000  0.0005  0.0012 -0.0014 -0.0001 -0.0000  0.0000 
 S   C   101  0.0013  0.0000 -0.0010  0.0105 -0.0136 -0.0008  0.0055 -0.0000 
 Px  C   101 -0.0000  0.0000 -0.0007  0.0071 -0.0111 -0.0006  0.0041 -0.0000 
 Py  C   101  0.0000 -0.0000  0.0004 -0.0074  0.0116  0.0003 -0.0040  0.0000 
 Pz  C   101  0.0001 -0.0000  0.0004  0.0036 -0.0033 -0.0000  0.0010 -0.0000 
 S   H   102  0.0005  0.0000 -0.0002  0.0047 -0.0044 -0.0002  0.0018 -0.0000 
 S   C   103  0.0002  0.0000 -0.0003 -0.0006  0.0013 -0.0001 -0.0001 -0.0000 
 Px  C   103  0.0001  0.0000 -0.0001 -0.0002  0.0004 -0.0001  0.0000 -0.0000 
 Py  C   103 -0.0001 -0.0000  0.0001  0.0001 -0.0002  0.0000 -0.0001  0.0000 
 Pz  C   103  0.0000 -0.0000  0.0002  0.0001  0.0000  0.0000 -0.0002  0.0000 
 S   H   104  0.0001  0.0000 -0.0001 -0.0001  0.0004 -0.0000 -0.0000 -0.0000 
 S   H   105  0.0001  0.0000 -0.0001 -0.0002  0.0005 -0.0001 -0.0000 -0.0000 
 S   H   106  0.0001  0.0000 -0.0004 -0.0002  0.0005 -0.0001  0.0002 -0.0000 
 S   C   107  0.0002  0.0000 -0.0019 -0.0006  0.0013 -0.0004  0.0014 -0.0000 
 Px  C   107 -0.0001 -0.0000  0.0003  0.0003 -0.0006  0.0000 -0.0001  0.0000 
 Py  C   107 -0.0001 -0.0000  0.0010  0.0000 -0.0001  0.0002 -0.0008  0.0000 
 Pz  C   107  0.0001 -0.0000  0.0004 -0.0000  0.0001 -0.0000 -0.0005  0.0000 
 S   H   108  0.0001  0.0000 -0.0029 -0.0004  0.0009 -0.0005  0.0024 -0.0001 
 S   H   109  0.0001  0.0000 -0.0006 -0.0003  0.0006 -0.0002  0.0004 -0.0000 
 S   H   110  0.0000  0.0000 -0.0009  0.0001 -0.0001 -0.0002  0.0008 -0.0000 
 S   H   111 -0.0000  0.0000 -0.0000  0.0016 -0.0016 -0.0813 -0.0149  0.0000 
 S   H   112 -0.0000  0.0000 -0.0000  0.0028 -0.0009 -0.0745 -0.0137  0.0000 
 S   H   113 -0.0000 -0.0000 -0.0002  0.0001 -0.0003  0.0003 -0.0017 -0.0797 
 S   H   114 -0.0000  0.0014 -0.0002  0.0001 -0.0004  0.0003 -0.0018 -0.0749 


    Root No.     9      10      11      12      13      14      15      16  

             -35.813 -35.495 -35.026 -34.821 -31.510 -31.322 -30.876 -30.845

 S   N     1 -0.0001  0.0038  0.0000 -0.0028 -0.0050  0.0001  0.0013 -0.0022 
 Px  N     1 -0.0000 -0.0000  0.0000 -0.0001  0.0020 -0.0001 -0.0005  0.0008 
 Py  N     1  0.0000 -0.0001 -0.0000  0.0004 -0.0014  0.0000  0.0001  0.0000 
 Pz  N     1  0.0000 -0.0002 -0.0000  0.0002  0.0009 -0.0000  0.0001 -0.0003 
 S   H     2 -0.0000  0.0010 -0.0000 -0.0006 -0.0022  0.0001  0.0006 -0.0010 
 S   C     3 -0.0000  0.0003 -0.0000  0.0006 -0.0024  0.0001 -0.0008  0.0018 
 Px  C     3  0.0000 -0.0010 -0.0000  0.0010  0.0021 -0.0000 -0.0007  0.0014 
 Py  C     3  0.0001 -0.0016 -0.0000  0.0019 -0.0004  0.0000 -0.0005  0.0010 
 Pz  C     3  0.0000 -0.0001  0.0000  0.0001 -0.0002 -0.0000  0.0005 -0.0010 
 S   C     4  0.0000 -0.0009 -0.0000  0.0013 -0.0024  0.0001 -0.0013  0.0027 
 Px  C     4  0.0000 -0.0005 -0.0000  0.0009 -0.0004  0.0000 -0.0005  0.0011 
 Py  C     4  0.0000 -0.0007  0.0000  0.0003  0.0002 -0.0000 -0.0004  0.0006 
 Pz  C     4  0.0000 -0.0003 -0.0000  0.0005 -0.0005  0.0000  0.0000 -0.0000 
 S   H     5  0.0000 -0.0004 -0.0000  0.0004 -0.0010  0.0000 -0.0004  0.0009 
 S   O     6  0.0012 -0.0641  0.0026 -0.0086 -0.1130 -0.0078 -0.2630  0.3730 
 Px  O     6  0.0010 -0.0564  0.0024 -0.0099 -0.0512 -0.0033 -0.1049  0.1486 
 Py  O     6 -0.0005  0.0121  0.0003 -0.0143  0.0218  0.0007  0.0366 -0.0544 
 Pz  O     6  0.0001  0.0232 -0.0018  0.0176  0.0118  0.0001  0.0282 -0.0435 
 S   C     7 -0.0005 -0.0000 -0.0012 -0.0001 -0.0006  0.0125 -0.0070 -0.0054 
 Px  C     7 -0.0005 -0.0000  0.0004  0.0000  0.0002 -0.0058  0.0028  0.0021 
 Py  C     7 -0.0000  0.0000  0.0001 -0.0000  0.0000  0.0013 -0.0009 -0.0006 
 Pz  C     7  0.0013  0.0000  0.0008  0.0000  0.0000  0.0000  0.0001  0.0001 
 S   H     8 -0.0007 -0.0000 -0.0005 -0.0000 -0.0002  0.0031 -0.0020 -0.0015 
 S   C     9  0.0024  0.0001  0.0007 -0.0000 -0.0006  0.0185 -0.0072 -0.0053 
 Px  C     9  0.0006  0.0000 -0.0004 -0.0000 -0.0002  0.0028 -0.0023 -0.0018 
 Py  C     9 -0.0025 -0.0000  0.0002  0.0001  0.0000 -0.0002 -0.0001 -0.0002 
 Pz  C     9 -0.0015 -0.0000  0.0007  0.0001  0.0002 -0.0059  0.0020  0.0014 
 S   H    10  0.0014  0.0001  0.0006 -0.0000 -0.0001  0.0066 -0.0023 -0.0015 
 S   C    11  0.0029  0.0001  0.0001 -0.0001 -0.0007  0.0158 -0.0076 -0.0058 
 Px  C    11 -0.0017 -0.0001 -0.0004  0.0000  0.0001 -0.0043  0.0013  0.0009 
 Py  C    11 -0.0015 -0.0001 -0.0008 -0.0000 -0.0001  0.0043 -0.0022 -0.0017 
 Pz  C    11 -0.0005 -0.0000  0.0004  0.0000  0.0002 -0.0031  0.0015  0.0011 
 S   H    12  0.0025  0.0001  0.0008 -0.0000 -0.0003  0.0042 -0.0021 -0.0016 
 S   C    13  0.0000  0.0001 -0.0000  0.0007 -0.0011  0.0000  0.0002 -0.0003 
 Px  C    13 -0.0000 -0.0000  0.0000 -0.0005  0.0007 -0.0000 -0.0001  0.0001 
 Py  C    13 -0.0000 -0.0000  0.0000 -0.0003  0.0004 -0.0000 -0.0001  0.0001 
 Pz  C    13  0.0000 -0.0000  0.0000 -0.0000  0.0003 -0.0000 -0.0000  0.0001 
 S   O    14  0.0000  0.0000  0.0000 -0.0001  0.0003 -0.0000  0.0000 -0.0000 
 Px  O    14 -0.0000 -0.0000  0.0000 -0.0001  0.0000  0.0000 -0.0000  0.0000 
 Py  O    14 -0.0000 -0.0000  0.0000 -0.0001  0.0001 -0.0000 -0.0000  0.0000 
 Pz  O    14 -0.0000 -0.0000  0.0000 -0.0002  0.0003 -0.0000 -0.0001  0.0001 
 S   N    15  0.0001  0.0002 -0.0001  0.0020 -0.0024  0.0001  0.0004 -0.0005 
 Px  N    15  0.0000  0.0000 -0.0000  0.0001 -0.0004  0.0000  0.0001 -0.0001 
 Py  N    15 -0.0000  0.0000  0.0000 -0.0001  0.0001 -0.0000 -0.0000  0.0000 
 Pz  N    15 -0.0000 -0.0000  0.0000 -0.0003  0.0014 -0.0001 -0.0002  0.0003 
 S   H    16  0.0000  0.0001 -0.0000  0.0007 -0.0010  0.0000  0.0001 -0.0002 
 S   C    17  0.0000 -0.0001  0.0000 -0.0003  0.0038 -0.0001 -0.0007  0.0010 
 Px  C    17  0.0000  0.0000 -0.0000  0.0000 -0.0003  0.0000  0.0001 -0.0001 
 Py  C    17 -0.0000 -0.0001  0.0000 -0.0004  0.0015 -0.0001 -0.0002  0.0003 
 Pz  C    17 -0.0000 -0.0001  0.0000 -0.0007  0.0023 -0.0001 -0.0004  0.0005 
 S   H    18 -0.0000 -0.0001  0.0000 -0.0003  0.0019 -0.0001 -0.0003  0.0005 
 S   C    19 -0.0000 -0.0005  0.0002 -0.0029  0.0103 -0.0004 -0.0016  0.0023 
 Px  C    19 -0.0000 -0.0000  0.0000 -0.0007 -0.0006  0.0000  0.0002 -0.0003 
 Py  C    19 -0.0000 -0.0002  0.0001 -0.0010  0.0006 -0.0000 -0.0000  0.0001 
 Pz  C    19 -0.0000 -0.0003  0.0000 -0.0004  0.0029 -0.0001 -0.0004  0.0005 
 S   H    20 -0.0000 -0.0006  0.0001 -0.0018  0.0094 -0.0003 -0.0015  0.0020 
 S   H    21 -0.0001 -0.0004  0.0002 -0.0035  0.0048 -0.0002 -0.0006  0.0008 
 S   C    22 -0.0000 -0.0004  0.0001 -0.0016  0.0084 -0.0003 -0.0017  0.0026 
 Px  C    22  0.0000 -0.0005  0.0000 -0.0006  0.0018 -0.0001 -0.0002  0.0002 
 Py  C    22  0.0000 -0.0004  0.0000  0.0002 -0.0005  0.0000 -0.0001  0.0004 
 Pz  C    22  0.0000 -0.0004  0.0000 -0.0000  0.0028 -0.0001 -0.0002  0.0002 
 S   C    23 -0.0000  0.0007  0.0000 -0.0012  0.0057 -0.0002 -0.0009  0.0011 
 Px  C    23  0.0000 -0.0011  0.0000  0.0003  0.0042 -0.0001 -0.0009  0.0014 
 Py  C    23 -0.0000  0.0002  0.0000 -0.0001 -0.0002  0.0000  0.0001 -0.0001 
 Pz  C    23  0.0000 -0.0006 -0.0000  0.0006  0.0017 -0.0000 -0.0002  0.0001 
 S   H    24  0.0000 -0.0001  0.0000 -0.0001  0.0050 -0.0001 -0.0008  0.0010 
 S   C    25 -0.0000 -0.0005 -0.0000  0.0004  0.0023 -0.0001 -0.0017  0.0034 
 Px  C    25 -0.0000 -0.0001  0.0000 -0.0006  0.0013 -0.0000 -0.0001  0.0000 
 Py  C    25  0.0000 -0.0004 -0.0001  0.0016 -0.0021  0.0001 -0.0002  0.0005 
 Pz  C    25  0.0000 -0.0009  0.0000  0.0002  0.0016 -0.0000 -0.0000 -0.0001 
 S   C    26 -0.0000  0.0020 -0.0002  0.0015  0.0001  0.0000 -0.0013  0.0028 
 Px  C    26 -0.0000  0.0014 -0.0000 -0.0009  0.0002 -0.0000  0.0003 -0.0008 
 Py  C    26 -0.0000  0.0017 -0.0002  0.0020 -0.0010  0.0001  0.0001  0.0000 
 Pz  C    26  0.0000 -0.0003 -0.0000  0.0001 -0.0000 -0.0000 -0.0006  0.0010 
 S   H    27 -0.0001  0.0018 -0.0001 -0.0005  0.0003 -0.0000 -0.0004  0.0009 
 S   C    28 -0.0000  0.0019 -0.0003  0.0030 -0.0001  0.0001  0.0002  0.0005 
 Px  C    28 -0.0000  0.0027 -0.0002  0.0012  0.0009  0.0000  0.0010 -0.0016 
 Py  C    28 -0.0000 -0.0001 -0.0000  0.0003  0.0006  0.0000  0.0010 -0.0017 
 Pz  C    28 -0.0000  0.0005 -0.0001  0.0014 -0.0008  0.0000 -0.0011  0.0019 
 S   H    29 -0.0001  0.0027 -0.0003  0.0026  0.0016  0.0001  0.0027 -0.0037 
 S   C    30  0.0000 -0.0016 -0.0000  0.0011 -0.0015  0.0001 -0.0014  0.0029 
 Px  C    30 -0.0000  0.0001 -0.0001  0.0007  0.0001  0.0000  0.0002 -0.0001 
 Py  C    30  0.0000 -0.0009  0.0001 -0.0007  0.0002 -0.0000  0.0000 -0.0002 
 Pz  C    30  0.0000 -0.0008 -0.0000  0.0007 -0.0008  0.0000 -0.0008  0.0014 
 S   H    31  0.0000 -0.0016  0.0001 -0.0003 -0.0006  0.0000 -0.0007  0.0014 
 S   C    32 -0.1480 -0.0042 -0.0367  0.0000  0.0019  0.0980  0.0057  0.0049 
 Px  C    32 -0.1533 -0.0011  0.0217  0.0030 -0.0007  0.0203 -0.0167 -0.0105 
 Py  C    32  0.1746  0.0084  0.1181  0.0024 -0.0006 -0.0238  0.0339  0.0221 
 Pz  C    32 -0.0833 -0.0055 -0.1170 -0.0041 -0.0014  0.0225 -0.0235 -0.0158 
 S   N    33 -0.5889 -0.0201 -0.2590 -0.0031 -0.0005  0.0515 -0.0520 -0.0327 
 Px  N    33  0.1214  0.0045  0.0581  0.0009 -0.0001 -0.0471  0.0179  0.0117 
 Py  N    33  0.0190  0.0018  0.0344  0.0013 -0.0002  0.0918 -0.0161 -0.0104 
 Pz  N    33 -0.0255 -0.0016 -0.0358 -0.0009 -0.0022 -0.0368  0.0014  0.0001 
 S   C    34 -0.1292 -0.0048 -0.0768 -0.0016 -0.0024 -0.2898  0.0845  0.0544 
 Px  C    34 -0.1005 -0.0035 -0.0444 -0.0007  0.0019 -0.1183  0.0401  0.0283 
 Py  C    34 -0.1516 -0.0055 -0.0761 -0.0009 -0.0040  0.2148 -0.0908 -0.0613 
 Pz  C    34  0.1554  0.0061  0.0739  0.0014 -0.0054 -0.0311  0.0194  0.0101 
 S   N    35  0.3484  0.0136  0.1528  0.0022 -0.0129 -0.0092  0.0046 -0.0034 
 Px  N    35 -0.0484 -0.0015 -0.0209 -0.0003 -0.0039 -0.1587  0.0494  0.0295 
 Py  N    35 -0.0219 -0.0011 -0.0213 -0.0006 -0.0025  0.0889 -0.0292 -0.0199 
 Pz  N    35  0.0280  0.0015  0.0216  0.0004 -0.0009  0.0305 -0.0088 -0.0055 
 S   H    36  0.1218  0.0048  0.0577  0.0009 -0.0008 -0.0350  0.0124  0.0077 
 S   C    37  0.1592  0.0031 -0.0009 -0.0024  0.0066  0.3283 -0.0865 -0.0489 
 Px  C    37  0.0337  0.0024  0.0350  0.0011 -0.0106 -0.1419  0.0430  0.0196 
 Py  C    37 -0.0481 -0.0036 -0.0733 -0.0033 -0.0008 -0.0113  0.0188  0.0120 
 Pz  C    37  0.0215  0.0026  0.0414  0.0012 -0.0006  0.0804 -0.0361 -0.0214 
 S   C    38  0.1525 -0.0075 -0.2732 -0.0169  0.0035  0.1146  0.0361  0.0261 
 Px  C    38 -0.0995  0.0025  0.1149  0.0076 -0.0019 -0.0066 -0.0218 -0.0157 
 Py  C    38  0.0902 -0.0024 -0.1420 -0.0105 -0.0024 -0.0560  0.0404  0.0254 
 Pz  C    38 -0.0166  0.0025  0.0451  0.0016 -0.0002  0.0507 -0.0198 -0.0119 
 S   N    39  0.1720  0.0199  0.3910  0.0148  0.0021 -0.0098  0.0554  0.0372 
 Px  N    39 -0.0473  0.0010  0.0282  0.0019  0.0008  0.0194  0.0148  0.0105 
 Py  N    39  0.0471  0.0019  0.0172  0.0003 -0.0012 -0.0442 -0.0278 -0.0196 
 Pz  N    39 -0.0149 -0.0017 -0.0277 -0.0016  0.0006  0.0269  0.0140  0.0093 
 S   N    40  0.3835 -0.0150 -0.6360 -0.0422 -0.0001 -0.0101  0.0839  0.0552 
 Px  N    40  0.0867 -0.0029 -0.1314 -0.0090  0.0002  0.0082  0.0249  0.0164 
 Py  N    40 -0.0094  0.0009  0.0185  0.0005 -0.0026 -0.0533 -0.0365 -0.0260 
 Pz  N    40 -0.0426  0.0020  0.0600  0.0033  0.0013  0.0385  0.0162  0.0118 
 S   N    41 -0.0053 -0.0598  0.0212 -0.3752 -0.0553  0.0023  0.0296 -0.0446 
 Px  N    41 -0.0016  0.0364  0.0007 -0.0361 -0.0070 -0.0002  0.0003 -0.0010 
 Py  N    41  0.0005  0.0362 -0.0031  0.0450 -0.0522  0.0009 -0.0135  0.0219 
 Pz  N    41  0.0005 -0.0480  0.0019  0.0007  0.0484 -0.0007  0.0093 -0.0150 
 S   C    42 -0.0001 -0.0976  0.0068 -0.0779  0.2745 -0.0058 -0.0150  0.0155 
 Px  C    42 -0.0031  0.0283  0.0037 -0.0970 -0.0587  0.0001  0.0095 -0.0130 
 Py  C    42  0.0001 -0.0359  0.0018 -0.0148 -0.0883  0.0033  0.0226 -0.0316 
 Pz  C    42  0.0005  0.0083 -0.0040  0.0622  0.1130 -0.0030 -0.0235  0.0329 
 S   C    43  0.0075 -0.1763 -0.0037  0.1816  0.2762 -0.0027 -0.0141  0.0151 
 Px  C    43 -0.0020  0.0176  0.0029 -0.0756  0.0498 -0.0016 -0.0072  0.0092 
 Py  C    43  0.0038 -0.0807 -0.0037  0.1175 -0.1288  0.0031  0.0300 -0.0402 
 Pz  C    43 -0.0007  0.0448 -0.0004 -0.0407  0.0947 -0.0005 -0.0217  0.0290 
 S   N    44  0.0196 -0.4359 -0.0148  0.5939 -0.0688  0.0016  0.0399 -0.0549 
 Px  N    44  0.0045 -0.0959 -0.0029  0.1200 -0.0067  0.0002  0.0098 -0.0136 
 Py  N    44  0.0005  0.0048 -0.0007 -0.0006 -0.0600 -0.0005 -0.0105  0.0155 
 Pz  N    44 -0.0018  0.0578  0.0008 -0.0778  0.0546  0.0001  0.0014 -0.0036 
 S   C    45  0.0096 -0.1978 -0.0072  0.2785 -0.1020 -0.0008 -0.0333  0.0516 
 Px  C    45 -0.0022  0.0784  0.0005 -0.0649  0.0170  0.0002  0.0045 -0.0061 
 Py  C    45 -0.0027  0.0698  0.0026 -0.1101 -0.0003 -0.0019 -0.0412  0.0571 
 Pz  C    45  0.0055 -0.1073 -0.0032  0.1330 -0.0121  0.0001  0.0282 -0.0432 
 S   C    46 -0.0009  0.1372 -0.0093  0.0726 -0.0738  0.0001 -0.0504  0.0779 
 Px  C    46 -0.0033  0.1127 -0.0008 -0.0616 -0.0008  0.0001 -0.0085  0.0113 
 Py  C    46  0.0005  0.1010 -0.0104  0.1314  0.0164 -0.0016 -0.0279  0.0409 
 Pz  C    46  0.0024 -0.1509  0.0111 -0.0771 -0.0160  0.0007  0.0265 -0.0397 
 S   N    47 -0.0056  0.5247 -0.0388  0.3161  0.0235 -0.0020 -0.0539  0.0770 
 Px  N    47  0.0009 -0.0913  0.0082 -0.0722  0.0006  0.0002  0.0181 -0.0287 
 Py  N    47  0.0003  0.0149 -0.0028  0.0424  0.0391 -0.0000  0.0397 -0.0616 
 Pz  N    47 -0.0002  0.0291 -0.0003 -0.0020 -0.0367 -0.0006 -0.0476  0.0728 
 S   C    48 -0.0015  0.0884 -0.0094  0.0825  0.1005  0.0026  0.1594 -0.2418 
 Px  C    48 -0.0010  0.1547 -0.0106  0.0940  0.0356 -0.0011  0.0484 -0.0836 
 Py  C    48  0.0014 -0.1610  0.0121 -0.1041  0.0212  0.0016  0.0807 -0.1226 
 Pz  C    48 -0.0003  0.0479 -0.0038  0.0360 -0.0403 -0.0015 -0.1053  0.1630 
 S   N    49  0.0020 -0.4280  0.0270 -0.2431  0.0026  0.0045  0.0307 -0.0277 
 Px  N    49 -0.0004  0.0532 -0.0041  0.0374  0.0374  0.0011  0.0674 -0.1009 
 Py  N    49  0.0001 -0.0149  0.0021 -0.0226  0.0037 -0.0007  0.0085 -0.0186 
 Pz  N    49  0.0004 -0.0079  0.0002  0.0026 -0.0276 -0.0018 -0.0558  0.0808 
 S   H    50  0.0007 -0.1396  0.0092 -0.0844  0.0003  0.0005  0.0079 -0.0120 
 S   C    51  0.0030 -0.1880  0.0079 -0.0306 -0.1006 -0.0043 -0.1715  0.2502 
 Px  C    51  0.0003 -0.0301  0.0019 -0.0172  0.0369  0.0030  0.0970 -0.1360 
 Py  C    51 -0.0006 -0.0398  0.0053 -0.0775 -0.0000 -0.0015 -0.0354  0.0467 
 Pz  C    51  0.0013  0.0522 -0.0059  0.0742 -0.0216 -0.0031 -0.0331  0.0379 
 S   C    52 -0.0004 -0.0252  0.0025 -0.0385  0.3255 -0.0110 -0.0485  0.0659 
 Px  C    52 -0.0011  0.0112 -0.0001 -0.0096 -0.1117  0.0016  0.0183 -0.0239 
 Py  C    52 -0.0009 -0.0155  0.0011 -0.0205  0.0241 -0.0003  0.0049 -0.0079 
 Pz  C    52  0.0006  0.0050 -0.0012  0.0216  0.0589 -0.0033 -0.0162  0.0241 
 S   H    53 -0.0008 -0.0065  0.0011 -0.0233  0.0969 -0.0045 -0.0138  0.0193 
 S   C    54  0.0024 -0.0120  0.0014 -0.0018  0.3908 -0.0128 -0.0771  0.1070 
[...]
 Px  C    77  0.0022 -0.0001  0.0001  0.2576  0.0006  0.1185 -0.0000  0.0091 
 Py  C    77 -0.0002  0.0000 -0.0000 -0.0226 -0.0001 -0.0111  0.0002 -0.0014 
 Pz  C    77  0.0019 -0.0001  0.0001  0.1788  0.0004  0.0498  0.0001  0.0017 
 S   O    78  0.0006 -0.0000  0.0000  0.0594  0.0001  0.0211  0.0000  0.0012 
 Px  O    78 -0.0003  0.0000 -0.0000 -0.0471 -0.0001 -0.0327  0.0000 -0.0033 
 Py  O    78  0.0002 -0.0000  0.0000  0.0074  0.0000 -0.0066  0.0000 -0.0011 
 Pz  O    78  0.0016 -0.0001  0.0001  0.1558  0.0004  0.0486  0.0001  0.0022 
 S   N    79 -0.0005  0.0000 -0.0000 -0.0470 -0.0001 -0.0218 -0.0001 -0.0014 
 Px  N    79 -0.0000  0.0000 -0.0000 -0.0260 -0.0001 -0.0074  0.0001 -0.0010 
 Py  N    79 -0.0005  0.0000 -0.0000 -0.0800 -0.0002 -0.0597  0.0002 -0.0065 
 Pz  N    79 -0.0041  0.0002 -0.0003 -0.5135 -0.0013 -0.2567  0.0003 -0.0220 
 S   H    80  0.0042 -0.0002  0.0003  0.5167  0.0013  0.2583 -0.0003  0.0220 
 S   C    81 -0.0010  0.0000 -0.0001 -0.1670 -0.0004 -0.1070 -0.0009 -0.0087 
 Px  C    81 -0.0009  0.0000 -0.0001 -0.1913 -0.0005 -0.0986  0.0009 -0.0118 
 Py  C    81 -0.0012  0.0000 -0.0000 -0.0641 -0.0001  0.0571 -0.0010  0.0121 
 Pz  C    81 -0.0001  0.0000  0.0000  0.0358  0.0001  0.0684  0.0003  0.0087 
 S   H    82  0.0009 -0.0000  0.0001  0.1636  0.0004  0.0892  0.0010  0.0060 
 S   C    83 -0.0054  0.0002 -0.0002 -0.2083 -0.0001  0.4501 -0.0007  0.0675 
 Px  C    83 -0.0059  0.0002 -0.0001 -0.0504  0.0001  0.1932 -0.0047  0.0534 
 Py  C    83  0.0039 -0.0001  0.0001  0.0869  0.0001 -0.1100  0.0039 -0.0245 
 Pz  C    83  0.0011 -0.0000  0.0001  0.0894  0.0000 -0.1902 -0.0026 -0.0305 
 S   H    84 -0.0016  0.0000  0.0001  0.1170  0.0000 -0.2426 -0.0033 -0.0242 
 S   H    85  0.0105 -0.0004  0.0002  0.2529  0.0001 -0.5431  0.0003 -0.0915 
 S   C    86 -0.0001  0.0000  0.0000  0.0069 -0.0001 -0.0024 -0.0077  0.0928 
 Px  C    86  0.0025 -0.0001  0.0001  0.0552  0.0000 -0.0938  0.0313 -0.1092 
 Py  C    86  0.0004 -0.0000  0.0000  0.0276  0.0001 -0.0454 -0.0114 -0.0016 
 Pz  C    86 -0.0016  0.0001 -0.0001 -0.0601 -0.0001  0.0837 -0.0036  0.0502 
 S   C    87  0.0008 -0.0000  0.0000  0.0310  0.0000 -0.0472  0.0230 -0.1302 
 Px  C    87  0.0019 -0.0001  0.0000  0.0251  0.0001 -0.0289  0.0104 -0.1982 
 Py  C    87 -0.0007  0.0000 -0.0000 -0.0101 -0.0001 -0.0022 -0.0009  0.1706 
 Pz  C    87  0.0001 -0.0000  0.0000  0.0058  0.0000  0.0065 -0.0004 -0.0825 
 S   H    88  0.0011 -0.0000 -0.0000 -0.0032  0.0001  0.0226 -0.0067 -0.1234 
 S   N    89 -0.0002  0.0000 -0.0000 -0.0026 -0.0000  0.0078  0.0128 -0.0364 
 Px  N    89 -0.0008  0.0000  0.0000  0.0028 -0.0003 -0.0638 -0.0080  0.5313 
 Py  N    89 -0.0002  0.0000 -0.0000 -0.0127 -0.0000  0.0039 -0.0250  0.1635 
 Pz  N    89  0.0002 -0.0000  0.0000  0.0057  0.0001  0.0070  0.0106 -0.1645 
 S   H    90 -0.0008  0.0000 -0.0000 -0.0016 -0.0002 -0.0609 -0.0259  0.5672 
 S   C    91 -0.0024  0.0001 -0.0000 -0.0308  0.0002  0.0630  0.0340 -0.1801 
 Px  C    91 -0.0029  0.0001 -0.0000 -0.0189 -0.0002  0.0141  0.0677  0.0639 
 Py  C    91 -0.0002  0.0000 -0.0000 -0.0135  0.0000  0.0523 -0.0237 -0.2618 
 Pz  C    91  0.0012 -0.0000  0.0000  0.0141  0.0001 -0.0314 -0.0062  0.0974 
 S   C    92  0.0027 -0.0001  0.0000  0.0217  0.0002 -0.0386 -0.1495  0.1303 
 Px  C    92 -0.0014  0.0001 -0.0001 -0.0390  0.0001  0.0720 -0.1204 -0.0291 
 Py  C    92 -0.0024  0.0001 -0.0000 -0.0148  0.0000  0.0233  0.0627 -0.0759 
 Pz  C    92  0.0025 -0.0001  0.0000  0.0327 -0.0001 -0.0551 -0.0011  0.0752 
 S   C    93  0.0052 -0.0002  0.0001  0.0856  0.0002 -0.1433  0.1200 -0.0161 
 Px  C    93  0.0072 -0.0002  0.0001  0.0696  0.0004 -0.1111 -0.1990  0.0893 
 Py  C    93  0.0029 -0.0001  0.0001  0.0225 -0.0002 -0.0320  0.0281  0.0264 
 Pz  C    93 -0.0058  0.0002 -0.0001 -0.0546 -0.0001  0.0827  0.0643 -0.0625 
 S   H    94 -0.0121  0.0004 -0.0002 -0.1454 -0.0004  0.2381  0.0631 -0.0710 
 S   C    95 -0.0117  0.0004 -0.0000 -0.0003  0.0002  0.0010 -0.0000  0.0002 
 Px  C    95 -0.0032  0.0001 -0.0000 -0.0005  0.0003  0.0011 -0.0001  0.0002 
 Py  C    95 -0.0135  0.0004 -0.0000 -0.0003 -0.0001  0.0009 -0.0000  0.0000 
 Pz  C    95  0.0153 -0.0005  0.0000 -0.0010 -0.0001  0.0019 -0.0001  0.0004 
 S   C    96  0.0060 -0.0002 -0.0000 -0.0003  0.0002  0.0006  0.0000 -0.0003 
 Px  C    96 -0.0086  0.0003 -0.0000 -0.0000 -0.0000  0.0002  0.0000  0.0002 
 Py  C    96  0.0114 -0.0004  0.0000 -0.0006 -0.0002  0.0011 -0.0000  0.0007 
 Pz  C    96 -0.0059  0.0002 -0.0000 -0.0002  0.0002  0.0006  0.0001 -0.0003 
 S   C    97  0.0527 -0.0018  0.0001 -0.0007 -0.0001  0.0007 -0.0000  0.0002 
 Px  C    97 -0.0039  0.0001  0.0000  0.0001 -0.0001 -0.0001 -0.0000  0.0000 
 Py  C    97 -0.0043  0.0001  0.0000 -0.0003  0.0001  0.0009 -0.0000  0.0001 
 Pz  C    97 -0.0023  0.0001 -0.0000 -0.0013 -0.0000  0.0027  0.0001  0.0003 
 S   H    98 -0.0584  0.0021 -0.0002 -0.0002  0.0001  0.0013  0.0001  0.0000 
 S   C    99  0.0208 -0.0007  0.0000 -0.0010 -0.0000  0.0016  0.0000  0.0001 
 Px  C    99  0.0082 -0.0003 -0.0000 -0.0007 -0.0000  0.0012  0.0000  0.0001 
 Py  C    99  0.1132 -0.0038  0.0001 -0.0023 -0.0000  0.0025  0.0000  0.0002 
 Pz  C    99 -0.0768  0.0026 -0.0001  0.0001  0.0000  0.0011  0.0000  0.0002 
 S   C   100  0.0014 -0.0001 -0.0000 -0.0003 -0.0000  0.0005  0.0000  0.0001 
 Px  C   100  0.0530 -0.0017  0.0000 -0.0007  0.0000  0.0008 -0.0001  0.0001 
 Py  C   100 -0.0711  0.0024 -0.0000  0.0005  0.0000  0.0001  0.0000  0.0002 
 Pz  C   100  0.0282 -0.0009  0.0000 -0.0008 -0.0000  0.0013  0.0000  0.0001 
 S   C   101 -0.0335  0.0011 -0.0000  0.0006 -0.0000 -0.0007 -0.0001  0.0008 
 Px  C   101 -0.0104  0.0003 -0.0000 -0.0005  0.0000  0.0014  0.0002 -0.0008 
 Py  C   101 -0.0088  0.0003 -0.0000 -0.0002  0.0001  0.0006  0.0000  0.0001 
 Pz  C   101  0.0124 -0.0004  0.0000 -0.0001 -0.0001 -0.0001 -0.0001  0.0006 
 S   H   102  0.0159 -0.0005  0.0000 -0.0008  0.0000  0.0017  0.0003 -0.0016 
 S   C   103  0.2784 -0.0091  0.0001 -0.0017 -0.0000 -0.0001 -0.0001 -0.0007 
 Px  C   103 -0.0470  0.0015 -0.0000  0.0003  0.0000  0.0000  0.0000  0.0002 
 Py  C   103  0.0781 -0.0026  0.0000 -0.0002 -0.0000 -0.0006 -0.0000 -0.0003 
 Pz  C   103 -0.0080  0.0002  0.0000  0.0000  0.0000  0.0000 -0.0000  0.0000 
 S   H   104 -0.1630  0.0053 -0.0001  0.0010  0.0000  0.0001  0.0001  0.0006 
 S   H   105 -0.2097  0.0069 -0.0001  0.0011  0.0000  0.0005  0.0001  0.0006 
 S   H   106 -0.1775  0.0057 -0.0001  0.0011  0.0000 -0.0001  0.0001  0.0004 
 S   C   107 -0.5701  0.0193 -0.0004  0.0100  0.0001 -0.0094 -0.0000 -0.0005 
 Px  C   107 -0.0325  0.0010 -0.0000  0.0006 -0.0000 -0.0006 -0.0000 -0.0000 
 Py  C   107 -0.1767  0.0059 -0.0001  0.0032  0.0000 -0.0031 -0.0000 -0.0002 
 Pz  C   107  0.0399 -0.0015  0.0001 -0.0008 -0.0000  0.0009 -0.0000  0.0001 
 S   H   108  0.2618 -0.0091  0.0002 -0.0046 -0.0001  0.0044  0.0000  0.0003 
 S   H   109  0.4546 -0.0153  0.0003 -0.0081 -0.0001  0.0077  0.0000  0.0004 
 S   H   110  0.3717 -0.0126  0.0003 -0.0068 -0.0001  0.0065  0.0000  0.0004 
 S   H   111 -0.0012  0.0000 -0.0001 -0.1380 -0.0003 -0.0566 -0.0000 -0.0038 
 S   H   112  0.0001 -0.0000 -0.0000 -0.0304 -0.0001 -0.0348  0.0013 -0.0070 
 S   H   113 -0.0000  0.0098  0.1436 -0.0001  0.0070  0.0000 -0.0000  0.0000 
 S   H   114  0.0002  0.0078  0.0845 -0.0001  0.0047  0.0000 -0.0000  0.0000 


              NET ATOMIC CHARGES AND DIPOLE CONTRIBUTIONS

  ATOM NO.   TYPE          CHARGE      No. of ELECS.   s-Pop       p-Pop       
    1          N          -0.290030        5.2900     1.48820     3.80183
    2          H           0.302734        0.6973     0.69727
    3          C           0.043804        3.9562     1.03037     2.92583
    4          C          -0.200754        4.2008     1.07722     3.12353
    5          H           0.149530        0.8505     0.85047
    6          O          -0.416642        6.4166     1.89059     4.52605
    7          C          -0.200711        4.2007     1.07580     3.12492
    8          H           0.154684        0.8453     0.84532
    9          C          -0.229633        4.2296     1.07203     3.15760
   10          H           0.167898        0.8321     0.83210
   11          C          -0.122064        4.1221     1.07228     3.04978
   12          H           0.150792        0.8492     0.84921
   13          C           0.461558        3.5384     1.09783     2.44061
   14          O          -0.573690        6.5737     1.88024     4.69346
   15          N          -0.553210        5.5532     1.54117     4.01204
   16          H           0.296257        0.7037     0.70374
   17          C          -0.067943        4.0679     1.05471     3.01323
   18          H           0.151007        0.8490     0.84899
   19          C          -0.263816        4.2638     1.05759     3.20623
   20          H           0.145281        0.8547     0.85472
   21          H           0.180348        0.8197     0.81965
   22          C          -0.108728        4.1087     1.06062     3.04811
   23          C          -0.074780        4.0748     1.07597     2.99881
   24          H           0.172753        0.8272     0.82725
   25          C          -0.095605        4.0956     1.03567     3.05993
   26          C          -0.119437        4.1194     1.08095     3.03849
   27          H           0.157747        0.8423     0.84225
   28          C          -0.190210        4.1902     1.09221     3.09800
   29          H           0.163871        0.8361     0.83613
   30          C          -0.108674        4.1087     1.09596     3.01272
   31          H           0.152328        0.8477     0.84767
   32          C           0.374882        3.6251     1.08584     2.53928
   33          N          -0.584078        5.5841     1.72924     3.85484
   34          C           0.698628        3.3014     1.02148     2.27989
   35          N          -0.614354        5.6144     1.56066     4.05369
   36          H           0.336085        0.6639     0.66392
   37          C           0.593826        3.4062     1.05515     2.35103
   38          C          -0.013991        4.0140     1.13345     2.88054
   39          N          -0.280248        5.2802     1.52981     3.75044
   40          N          -0.210176        5.2102     1.73079     3.47938
   41          N          -0.279338        5.2793     1.53494     3.74440
   42          C           0.167584        3.8324     1.06765     2.76477
   43          C           0.000128        3.9999     1.05227     2.94761
   44          N          -0.199837        5.1998     1.74744     3.45239
   45          C          -0.014972        4.0150     1.11991     2.89506
   46          C           0.386663        3.6133     1.08076     2.53258
   47          N          -0.584666        5.5847     1.73890     3.84577
   48          C           0.714908        3.2851     1.02252     2.26257
   49          N          -0.659894        5.6599     1.59045     4.06944
   50          H           0.344459        0.6555     0.65554
   51          C           0.565829        3.4342     1.08843     2.34574
   52          C          -0.237538        4.2375     1.07135     3.16619
   53          H           0.183517        0.8165     0.81648
   54          C           0.099278        3.9007     1.08027     2.82045
   55          C          -0.024143        4.0241     1.07137     2.95277
   56          C          -0.115340        4.1153     1.07010     3.04524
   57          H           0.185516        0.8145     0.81448
   58          O          -0.486282        6.4863     1.87327     4.61301
   59          O          -0.453146        6.4531     1.88001     4.57314
   60          O          -0.466831        6.4668     1.87799     4.58884
   61          C          -0.452908        4.4529     1.03989     3.41302
   62          H           0.149046        0.8510     0.85095
   63          H           0.167171        0.8328     0.83283
   64          H           0.169354        0.8306     0.83065
   65          C          -0.449948        4.4499     1.04897     3.40098
   66          H           0.167701        0.8323     0.83230
   67          H           0.166587        0.8334     0.83341
   68          H           0.163585        0.8364     0.83641
   69          C          -0.259832        4.2598     1.05881     3.20103
   70          H           0.167625        0.8324     0.83238
   71          H           0.199445        0.8006     0.80056
   72          H           0.162831        0.8372     0.83717
   73          C          -0.240494        4.2405     1.05662     3.18387
   74          H           0.197861        0.8021     0.80214
   75          H           0.167492        0.8325     0.83251
   76          H           0.161274        0.8387     0.83873
   77          C           0.432678        3.5673     1.10916     2.45816
   78          O          -0.557824        6.5578     1.90305     4.65478
   79          N          -0.529837        5.5298     1.52832     4.00152
   80          H           0.305797        0.6942     0.69420
   81          C          -0.083784        4.0838     1.05184     3.03194
   82          H           0.150322        0.8497     0.84968
   83          C          -0.243359        4.2434     1.06492     3.17844
   84          H           0.144680        0.8553     0.85532
   85          H           0.167347        0.8327     0.83265
   86          C          -0.098834        4.0988     1.07553     3.02330
   87          C          -0.073576        4.0736     1.08509     2.98848
   88          H           0.172905        0.8271     0.82710
   89          N          -0.345035        5.3450     1.51353     3.83151
   90          H           0.302284        0.6977     0.69772
   91          C           0.129808        3.8702     1.04198     2.82821
   92          C          -0.109904        4.1099     1.04466     3.06525
   93          C          -0.099317        4.0993     1.07586     3.02346
   94          H           0.158322        0.8417     0.84168
   95          C           0.163332        3.8367     1.06918     2.76748
   96          C           0.013859        3.9861     1.05535     2.93079
   97          C          -0.256672        4.2567     1.07751     3.17916
   98          H           0.178850        0.8211     0.82115
   99          C           0.091253        3.9087     1.09733     2.81142
  100          C          -0.032205        4.0322     1.07026     2.96194
  101          C          -0.064127        4.0641     1.09101     2.97312
  102          H           0.180798        0.8192     0.81920
  103          C          -0.431439        4.4314     1.05159     3.37984
  104          H           0.155690        0.8443     0.84431
  105          H           0.148966        0.8510     0.85103
  106          H           0.164945        0.8351     0.83505
  107          C          -0.447407        4.4474     1.04948     3.39793
  108          H           0.167822        0.8322     0.83218
  109          H           0.153923        0.8461     0.84608
  110          H           0.164297        0.8357     0.83570
  111          H           0.125173        0.8748     0.87483
  112          H           0.131874        0.8681     0.86813
  113          H           0.131351        0.8686     0.86865
  114          H           0.139121        0.8609     0.86088
 DIPOLE           X         Y         Z       TOTAL
 POINT-CHG.    -5.099    -0.454     2.163     5.557
 HYBRID        -1.830    -0.232     0.766     1.998
 SUM           -6.929    -0.685     2.929     7.554


          ATOMIC ORBITAL ELECTRON POPULATIONS

     Atom    s        px        py        pz   
    1  N   1.48820   1.17561   1.25493   1.37129
    2  H   0.69727
    3  C   1.03037   0.98178   0.93492   1.00912
    4  C   1.07722   1.07818   1.00295   1.04240
    5  H   0.85047
    6  O   1.89059   1.24223   1.66687   1.61695
    7  C   1.07580   1.08003   1.01406   1.03082
    8  H   0.84532
    9  C   1.07203   1.05771   1.02398   1.07591
   10  H   0.83210
   11  C   1.07228   0.99055   1.05232   1.00691
   12  H   0.84921
   13  C   1.09783   0.75949   0.74345   0.93767
   14  O   1.88024   1.56535   1.56566   1.56244
   15  N   1.54117   1.21307   1.64143   1.15754
   16  H   0.70374
   17  C   1.05471   1.14355   1.03601   0.83367
   18  H   0.84899
   19  C   1.05759   1.06085   1.03976   1.10562
   20  H   0.85472
   21  H   0.81965
   22  C   1.06062   0.99179   1.00956   1.04676
   23  C   1.07597   0.90733   1.03596   1.05551
   24  H   0.82725
   25  C   1.03567   0.99656   0.99578   1.06759
   26  C   1.08095   1.07475   0.98836   0.97538
   27  H   0.84225
   28  C   1.09221   1.01086   1.03946   1.04768
   29  H   0.83613
   30  C   1.09596   0.99043   1.03188   0.99041
   31  H   0.84767
   32  C   1.08584   0.89216   0.82121   0.82591
   33  N   1.72924   1.32806   1.17873   1.34805
   34  C   1.02148   0.74339   0.79271   0.74379
   35  N   1.56066   1.24577   1.36535   1.44257
   36  H   0.66392
   37  C   1.05515   0.77019   0.79012   0.79071
   38  C   1.13345   0.90222   0.98466   0.99366
   39  N   1.52981   1.16860   1.22899   1.35285
   40  N   1.73079   1.31390   1.03668   1.12881
   41  N   1.53494   1.19203   1.22275   1.32962
   42  C   1.06765   0.93267   0.92657   0.90553
   43  C   1.05227   0.96496   0.95290   1.02974
   44  N   1.74744   1.32065   1.05344   1.07830
   45  C   1.11991   0.93388   1.00134   0.95984
   46  C   1.08076   0.86908   0.83513   0.82837
   47  N   1.73890   1.37299   1.24247   1.23031
   48  C   1.02252   0.72229   0.76223   0.77806
   49  N   1.59045   1.28218   1.37525   1.41201
   50  H   0.65554
   51  C   1.08843   0.78972   0.79729   0.75874
   52  C   1.07135   1.11104   1.02468   1.03047
   53  H   0.81648
   54  C   1.08027   0.94599   0.94391   0.93055
   55  C   1.07137   0.97435   0.98769   0.99073
   56  C   1.07010   1.09677   0.97678   0.97169
   57  H   0.81448
   58  O   1.87327   1.56589   1.38172   1.66540
   59  O   1.88001   1.33239   1.72364   1.51711
   60  O   1.87799   1.58533   1.62132   1.38218
   61  C   1.03989   1.19506   1.14901   1.06894
   62  H   0.85095
   63  H   0.83283
   64  H   0.83065
   65  C   1.04897   1.16114   1.07264   1.16720
   66  H   0.83230
   67  H   0.83341
   68  H   0.83641
   69  C   1.05881   0.89639   1.13262   1.17201
   70  H   0.83238
   71  H   0.80056
   72  H   0.83717
   73  C   1.05662   0.90322   1.19562   1.08502
   74  H   0.80214
   75  H   0.83251
   76  H   0.83873
   77  C   1.10916   0.86521   0.74004   0.85291
   78  O   1.90305   1.89262   1.55698   1.20517
   79  N   1.52832   1.14435   1.67424   1.18293
   80  H   0.69420
   81  C   1.05184   0.92062   1.03887   1.07244
   82  H   0.84968
   83  C   1.06492   1.11646   1.00525   1.05673
   84  H   0.85532
   85  H   0.83265
   86  C   1.07553   0.97821   1.00039   1.04470
   87  C   1.08509   1.04748   0.96619   0.97482
   88  H   0.82710
   89  N   1.51353   1.15576   1.21494   1.46080
   90  H   0.69772
   91  C   1.04198   0.88336   0.94750   0.99735
   92  C   1.04466   1.00618   1.00668   1.05239
   93  C   1.07586   1.02099   0.99874   1.00373
   94  H   0.84168
   95  C   1.06918   0.89220   0.89516   0.98012
   96  C   1.05535   0.97307   0.98008   0.97764
   97  C   1.07751   1.10290   1.00844   1.06783
   98  H   0.82115
   99  C   1.09733   0.94858   0.94013   0.92271
  100  C   1.07026   0.96783   0.99115   1.00296
  101  C   1.09101   1.03850   0.94536   0.98926
  102  H   0.81920
  103  C   1.05159   1.10048   1.11404   1.16532
  104  H   0.84431
  105  H   0.85103
  106  H   0.83505
  107  C   1.04948   1.18660   1.09766   1.11367
  108  H   0.83218
  109  H   0.84608
  110  H   0.83570
  111  H   0.87483
  112  H   0.86813
  113  H   0.86865
  114  H   0.86088

 **********************
 *                    *
 * JOB ENDED NORMALLY *
 *                    *
 **********************



 TOTAL JOB TIME:             0.59 SECONDS

 == MOPAC DONE ==
